read_data	${fname}
read_data	PE_nc10_cl1000.dat
  orthogonal box = (0 0 0) to (80.0586 80.0586 80.0586)
  2 by 2 by 2 MPI processor grid
  reading atoms ...
  10000 atoms
  scanning bonds ...
  1 = max bonds/atom
  scanning angles ...
  1 = max angles/atom
  scanning dihedrals ...
  1 = max dihedrals/atom
  reading bonds ...
  9990 bonds
  reading angles ...
  9980 angles
  reading dihedrals ...
  9970 dihedrals
  2 = max # of 1-2 neighbors
  2 = max # of 1-3 neighbors
  4 = max # of 1-4 neighbors
  6 = max # of special neighbors
  special bonds CPU = 0.00175758 secs
  read_data CPU = 0.0762613 secs

# Dreiding potential information
neighbor	0.4 bin
neigh_modify	every 10 one 10000
bond_style      harmonic
bond_coeff	1 350 1.53
angle_style     harmonic
angle_coeff	1 60 109.5
dihedral_style	multi/harmonic
dihedral_coeff	1 1.73 -4.49 0.776 6.99 0.0
pair_style	lj/cut 10.5
pair_coeff	1 1 0.112 4.01 10.5

#####################################################
# Equilibration Stage 1 (Langevin dynamics at 500 K)
velocity 	all create 500.0 1231
fix		1 all nve/limit 0.05
fix		2 all langevin 500.0 500.0 10.0 904297
thermo_style	custom step temp press
thermo          100
timestep	1
run		10000
Neighbor list info ...
  update every 10 steps, delay 10 steps, check yes
  max neighbors/atom: 10000, page size: 100000
  master list distance cutoff = 10.9
  ghost atom cutoff = 10.9
  binsize = 5.45, bins = 15 15 15
  1 neighbor lists, perpetual/occasional/extra = 1 0 0
  (1) pair lj/cut, perpetual
      attributes: half, newton on
      pair build: half/bin/newton
      stencil: half/bin/3d/newton
      bin: standard
WARNING: Inconsistent image flags (../domain.cpp:784)
Per MPI rank memory allocation (min/avg/max) = 6.86 | 7.391 | 7.985 Mbytes
Step Temp Press 
       0          500 1.8475472e+08 
     100     816.7698    67302.533 
     200    555.57495    39041.501 
     300    521.72737    28715.534 
     400    513.51865    22780.311 
     500    499.42885    18828.106 
     600    498.72341     16577.45 
     700    498.29442    14538.628 
     800    504.52568    12929.269 
     900    497.90649    11968.713 
    1000    498.63715    11055.976 
    1100    503.00066    10010.486 
    1200    500.40307    9640.2069 
    1300     506.2888    8628.6488 
    1400    502.08302    8074.8815 
    1500    494.19669     7907.014 
    1600    502.98082    7758.4106 
    1700    495.93862    7099.7726 
    1800    503.78917     6620.521 
    1900    500.90512    6594.1565 
    2000    499.57243    6105.6164 
    2100    497.13312    5960.9046 
    2200    501.72443    6218.1192 
    2300    494.47761    5812.2238 
    2400    502.53937    5450.1866 
    2500     505.4237    5025.6084 
    2600       500.67    5177.6042 
    2700    506.75502    4928.4119 
    2800    495.00352    4791.8846 
    2900    502.57713    4768.1072 
    3000    496.95294    4606.4911 
    3100    499.07681    4549.4793 
    3200    496.97572    4351.3275 
    3300    501.20295    4110.9453 
    3400    501.98406    4231.1054 
    3500    502.72695    3907.6308 
    3600    502.26388    3750.3127 
    3700    501.71529    3790.3666 
    3800    495.37024    3864.5307 
    3900    500.70845    4112.1146 
    4000    502.63807    3425.2218 
    4100    508.53311    3913.2294 
    4200    500.57711    3225.4904 
    4300    495.69133    3393.6474 
    4400    499.94726    3085.4476 
    4500    494.75326    3075.6488 
    4600    502.62998    3057.3888 
    4700     494.4923    3009.7462 
    4800     495.4048    2903.8235 
    4900    498.12269    2613.1895 
    5000    498.81561    2927.6211 
    5100    495.52369    2951.4094 
    5200    500.66218      3263.86 
    5300    504.67723    2942.0929 
    5400      493.659    2579.4678 
    5500    503.23938    2670.4865 
    5600     500.7221    2197.0815 
    5700    501.04124    2245.4881 
    5800    496.95851    2782.7306 
    5900    499.39198    2653.4679 
    6000    492.68188    2426.2052 
    6100    495.91787    2346.6384 
    6200    501.06799    2123.3108 
    6300     497.7927    2383.9152 
    6400    507.44817    2081.4833 
    6500    501.71744    2174.5024 
    6600    507.26891    2482.6729 
    6700    502.89797    2109.6774 
    6800    512.11524    2160.4703 
    6900    502.65654    2368.6168 
    7000    499.86328     1984.252 
    7100    500.13938     2126.156 
    7200    500.85467    2110.4726 
    7300    501.38304    2495.5108 
    7400    500.60865    1963.6639 
    7500    491.82273    2158.1295 
    7600    494.88182    1960.8384 
    7700    501.17534    1851.1706 
    7800    493.91909    1994.9651 
    7900    494.31563    1926.6551 
    8000    503.71813    2245.7801 
    8100    501.59439    2048.6606 
    8200    501.74269    1974.2868 
    8300    502.15861    2026.4743 
    8400    495.56154    1977.2134 
    8500    503.31637    1994.6424 
    8600    499.47259    2030.6888 
    8700    500.39036    1986.4008 
    8800    504.21687    1784.4764 
    8900    499.90438    1789.2246 
    9000    503.29096    2076.2157 
    9100    497.04296    1268.2916 
    9200    504.12944    1644.1838 
    9300    496.70229    1828.7907 
    9400    499.10462    1496.3581 
    9500    501.12465    1610.4378 
    9600    503.03507    1853.7837 
    9700    501.09362    1621.5283 
    9800    496.35326     1725.254 
    9900    502.69309    1498.2112 
   10000     498.7076    1491.9451 
Loop time of 43.6035 on 8 procs for 10000 steps with 10000 atoms

Performance: 19.815 ns/day, 1.211 hours/ns, 229.340 timesteps/s
98.5% CPU use with 8 MPI tasks x no OpenMP threads

MPI task timing breakdown:
Section |  min time  |  avg time  |  max time  |%varavg| %total
---------------------------------------------------------------
Pair    | 5.6178     | 19.324     | 27.508     | 189.6 | 44.32
Bond    | 1.8294     | 4.6984     | 6.4916     |  75.0 | 10.78
Neigh   | 5.9035     | 5.9178     | 5.9319     |   0.5 | 13.57
Comm    | 2.0066     | 12.346     | 29.511     | 292.7 | 28.31
Output  | 0.0029586  | 0.0065336  | 0.0127     |   4.2 |  0.01
Modify  | 0.42147    | 1.0708     | 1.4638     |  35.3 |  2.46
Other   |            | 0.2406     |            |       |  0.55

Nlocal:    1250 ave 1683 max 521 min
Histogram: 1 1 0 0 1 0 0 1 2 2
Nghost:    3215.75 ave 3392 max 2871 min
Histogram: 1 0 0 0 1 1 0 1 3 1
Neighs:    89267 ave 124170 max 28595 min
Histogram: 1 1 0 1 0 0 0 1 1 3

Total # of neighbors = 714136
Ave neighs/atom = 71.4136
Ave special neighs/atom = 5.988
Neighbor list builds = 826
Dangerous builds = 652
unfix 1
unfix 2
write_restart 	restart.${simname}.dreiding1
write_restart 	restart.PE_nc10_cl1000.dreiding1

#####################################################
# Equilibration Stage 2 (NPT dynamics at 500 K)
fix		1 all npt temp 500.0 500.0 50 iso 0 0 1000 drag 2
fix  		2 all momentum 1 linear 1 1 1
thermo_style	custom step temp press
thermo          100
timestep	0.5
reset_timestep	0
run		50000
WARNING: Inconsistent image flags (../domain.cpp:784)
Per MPI rank memory allocation (min/avg/max) = 6.86 | 7.434 | 7.985 Mbytes
Step Temp Press 
       0     498.7076    1491.9451 
     100    504.77991    1421.1076 
     200    504.42914    907.84052 
     300     506.6856    953.06995 
     400    497.46852    615.19745 
     500    509.24418    737.89969 
     600    505.99332    456.53495 
     700     504.1895    303.47598 
     800     510.2896    393.30143 
     900    505.14357    149.87559 
    1000    502.43392    259.26176 
    1100    502.11781    155.85917 
    1200    500.40007    -266.5774 
    1300    500.72774     309.2343 
    1400    498.61618   -238.41193 
    1500     499.7464     162.4919 
    1600    503.68854   -288.05292 
    1700    498.34699    230.66631 
    1800    496.43277   -491.17201 
    1900     503.9894    248.68446 
    2000    502.03396   -407.19417 
    2100    498.95571    112.83146 
    2200    502.51887   -229.61268 
    2300    500.70284   -144.36623 
    2400    499.90806   -173.61549 
    2500     499.0389   -259.36975 
    2600    494.15092    68.540237 
    2700    503.98622    41.242289 
    2800    499.19967   -107.05615 
    2900    504.80991   -206.70993 
    3000    498.60237    19.138897 
    3100    503.88889   -121.72724 
    3200    499.27364   -219.75553 
    3300    496.03165    53.906301 
    3400    500.79392   -325.41898 
    3500    501.49348   -46.803993 
    3600    497.46484   -214.67266 
    3700    503.25777    232.39773 
    3800    496.37608   -503.82409 
    3900     504.7007    157.79491 
    4000    499.14124   -454.35033 
    4100    502.18549   -110.87844 
    4200    502.84618   -57.459956 
    4300    501.62506   -90.131862 
    4400     501.1662    219.46417 
    4500    504.18426   -313.12519 
    4600    501.25227   -122.65118 
    4700    504.20757   -259.68267 
    4800    503.53899   -72.835812 
    4900    502.41742   -170.93116 
    5000    502.73175    251.91614 
    5100      500.101   -415.23188 
    5200    503.14814     285.6831 
    5300    502.91069   -301.53573 
    5400    498.87902   -88.265785 
    5500    499.62228   -21.944417 
    5600    504.67512     6.556209 
    5700    494.90473   -80.008412 
    5800    505.51019   -243.16506 
    5900    499.85772   -138.86568 
    6000    502.43455   -70.375898 
    6100    499.05128   -307.64974 
    6200    499.86267     392.9524 
    6300    500.53487   -477.34222 
    6400    498.19059    327.89299 
    6500    501.62073   -115.25264 
    6600    496.84087   -235.81717 
    6700    496.46212    -51.83815 
    6800    504.99058    3.7459027 
    6900    503.51196   -169.88377 
    7000    502.85235    45.602619 
    7100    497.42357    27.043388 
    7200    503.64745    -287.4403 
    7300    502.27507   -154.25493 
    7400    503.44745    16.076323 
    7500      499.495   -283.81458 
    7600    502.07409   -65.612861 
    7700    503.25135    187.43852 
    7800    496.73492   -15.759215 
    7900    499.20191   -224.13528 
    8000    503.24978    41.533635 
    8100     496.2368   -124.56822 
    8200    500.87603   -307.17334 
    8300    498.87981   -182.71504 
    8400    496.98677    271.26432 
    8500    499.49487   -284.01878 
    8600    498.62004    -172.1679 
    8700    497.44782    75.564071 
    8800    501.95337   -136.66374 
    8900    497.78048   -151.09816 
    9000    500.01169   -28.454697 
    9100    506.64015    36.332487 
    9200    502.28076   -427.26876 
    9300    500.36441    159.25861 
    9400    504.27256   -171.28325 
    9500    500.29803    177.61272 
    9600    503.37154    -131.7326 
    9700     497.7933   -193.07391 
    9800    503.77302   -182.03746 
    9900    498.00559   -91.101604 
   10000    502.55804   -28.743072 
   10100    501.36517   -242.25244 
   10200    497.24864     224.5842 
   10300    498.53292   -201.22951 
   10400    501.47648    -26.45962 
   10500    497.55321   -128.70391 
   10600    502.60801   -144.64906 
   10700    500.01917    20.142361 
   10800    501.98324    75.971162 
   10900    505.01551   -87.775781 
   11000    497.75838    -157.5338 
   11100    501.11934    106.80665 
   11200     504.6347    132.47294 
   11300    497.96219   -289.55999 
   11400    500.85865     102.5993 
   11500    504.48246    52.516936 
   11600    497.86093    -135.4947 
   11700    501.84034    48.214316 
   11800    503.98885   -232.24096 
   11900    499.70558   -129.23912 
   12000    500.42943   -25.170042 
   12100    501.75589    17.074092 
   12200    502.96828   -161.27734 
   12300    501.21764    125.38725 
   12400    500.32441    -509.8835 
   12500      500.407    409.10774 
   12600    502.61691   -319.52119 
   12700    494.26144   -176.77341 
   12800    498.45116    41.471242 
   12900    503.20074   -172.84502 
   13000    499.43722   -33.641273 
   13100    498.05196   -99.340091 
   13200    496.52038   -167.50497 
   13300    505.48531     73.87813 
   13400    506.26319    212.08385 
   13500    499.75605   -246.62699 
   13600    499.62875   -144.37342 
   13700     501.7716    96.745105 
   13800    496.87464     -154.122 
   13900    494.07106    123.26667 
   14000    496.85101    87.842968 
   14100    499.84712   -327.42222 
   14200    503.20013    396.43898 
   14300     497.2514   -286.29736 
   14400    500.35988    194.80909 
   14500    500.19795    7.1560465 
   14600    500.93303   -109.37369 
   14700    501.20015   -338.88882 
   14800    496.66955    397.61971 
   14900     497.8312   -386.56992 
   15000    494.67921    49.674252 
   15100    500.31902   -63.445643 
   15200    499.21769   -95.436899 
   15300    501.05864    -314.6542 
   15400    500.17972     98.56822 
   15500    499.17203   -177.30873 
   15600    501.18135   -317.16658 
   15700    494.18982   -97.591012 
   15800    505.33208   -131.96243 
   15900    504.61323    8.1446073 
   16000    503.54733    26.620782 
   16100    501.96293   -233.11641 
   16200    503.45967   -28.429027 
   16300    500.85803   -85.842697 
   16400     502.9622   -134.93184 
   16500    501.76069     163.1527 
   16600    501.24345   -41.030933 
   16700    503.18705    35.464878 
   16800    502.18455    95.510231 
   16900    507.54457   -76.387316 
   17000    497.52348     23.96992 
   17100    504.76503    217.82305 
   17200    499.25059    66.620905 
   17300    500.86893    51.077933 
   17400    497.36669    235.74087 
   17500    496.25394   -299.97908 
   17600    497.74786    144.49392 
   17700    495.55118   -233.79381 
   17800    504.13064   -66.781089 
   17900    499.17402   -158.05797 
   18000    503.51575   -110.29732 
   18100    501.76641   -156.29865 
   18200    498.45096    270.42253 
   18300    494.98764   -335.35353 
   18400     499.7101   -96.639461 
   18500     498.1401   -20.689129 
   18600    501.94893    205.84567 
   18700    502.81569   -88.902579 
   18800    498.63736    243.83543 
   18900    496.33508   -217.81103 
   19000    498.96078    428.49772 
   19100     499.5215   -119.74226 
   19200     493.8712   -117.59339 
   19300    502.81842   -181.01799 
   19400      502.828    -9.899767 
   19500    498.57622    235.22076 
   19600    501.05374   -207.09863 
   19700    508.32369   -74.184846 
   19800    498.18793   -59.777453 
   19900    496.94068   -53.137774 
   20000    501.26269   -285.61714 
   20100     500.7459    104.16496 
   20200    501.87144   -168.98771 
   20300    502.34403    100.93518 
   20400    494.91649   -243.12117 
   20500    499.26401   -56.217997 
   20600    500.21097    234.06665 
   20700    498.82235   -193.04799 
   20800    500.53223   -30.125954 
   20900    498.98306   -89.765754 
   21000    504.20403   -320.43357 
   21100    504.88562    582.73446 
   21200     501.8483   -523.49226 
   21300    497.26092    388.24545 
   21400    500.72817   -192.44522 
   21500    503.69338      94.4539 
   21600    503.80455   -350.85706 
   21700    497.97187    113.36055 
   21800    503.21482    -555.8773 
   21900    502.53476    266.34493 
   22000    495.25651    139.37723 
   22100    496.83858   -11.121736 
   22200    501.41767   -146.09045 
   22300     497.0654    -212.6655 
   22400    499.98036    299.43283 
   22500    497.29899   -285.18601 
   22600     501.5831    232.13117 
   22700    494.45302   -315.12253 
   22800    505.71271    42.795779 
   22900    498.66465   -172.23586 
   23000    500.42593    27.013611 
   23100    498.21541   -208.56029 
   23200    501.15704   -26.434779 
   23300    499.30066    243.09921 
   23400    497.20279    -499.5455 
   23500    502.66323    336.80042 
   23600    498.75801   -280.67427 
   23700    504.68881    67.169194 
   23800    505.76418   -155.26982 
   23900    495.58627   -153.39743 
   24000    502.38504    334.60396 
   24100    494.52161   -562.31035 
   24200    501.11051    574.16568 
   24300    498.43561   -436.78379 
   24400     504.4132    345.55492 
   24500    501.11469   -468.61954 
   24600    501.10039    142.46111 
   24700    496.36184   -126.90913 
   24800    502.29586   -226.74638 
   24900    500.36954    118.37034 
   25000    495.30408   -107.21296 
   25100    498.13196   -167.32851 
   25200    502.31724    282.47542 
   25300    499.66193   -264.80036 
   25400    502.25431     174.1327 
   25500    502.40397     -267.108 
   25600    496.96128    80.026302 
   25700    503.02501   -398.41682 
   25800    505.66875    363.64169 
   25900    503.72975   -289.15304 
   26000     499.9062    14.423827 
   26100    499.53136    281.15419 
   26200    500.59621   -136.52338 
   26300    503.44744   -40.105406 
   26400    500.68698    218.69657 
   26500    493.64807   -139.87175 
   26600    496.46709    115.59319 
   26700     499.1832   -166.10154 
   26800     496.6569   -11.927478 
   26900    494.74338   -11.742205 
   27000     502.0213   -183.74467 
   27100    504.04075   -94.797482 
   27200    498.48178    299.20167 
   27300    494.73347   -421.19176 
   27400    499.72038    96.470314 
   27500    502.78996   -166.71936 
   27600    504.04609   -114.56638 
   27700    496.60643   -13.200663 
   27800    502.17055   -127.72291 
   27900    503.73468   -19.650385 
   28000    496.74809    55.619372 
   28100     498.7636   -281.19562 
   28200     498.9992   -12.917327 
   28300    505.31232    20.277303 
   28400    497.51678   -146.56206 
   28500    498.15531    186.28865 
   28600    503.91117   -332.10389 
   28700     497.3808    138.66387 
   28800     498.7077    276.38199 
   28900    500.18943   -343.50337 
   29000    499.47338    169.34849 
   29100    501.45503     48.86052 
   29200    496.77854   -234.73358 
   29300    502.36554    185.32755 
   29400     501.7407   -7.0741451 
   29500    502.64392   -164.71287 
   29600    495.92422   -131.75135 
   29700    503.18446    240.30901 
   29800     499.9309   -334.24902 
   29900     501.8866    257.78412 
   30000    500.07021   -217.69074 
   30100     495.7918    245.65203 
   30200    504.79502   -167.84088 
   30300    502.15549   -6.1769692 
   30400    504.14712   -49.027058 
   30500    500.55204   -38.858581 
   30600    496.45529   -188.84279 
   30700    504.86259    22.407186 
   30800    499.29515    87.190878 
   30900    500.70775    120.72993 
   31000    494.73441   -65.834373 
   31100    497.82674    46.975387 
   31200    496.91376   -105.78849 
   31300    504.50711    104.16008 
   31400    498.67873   -138.37245 
   31500    501.23223   -171.19926 
   31600    500.55313    228.03748 
   31700    497.95379   -368.04289 
   31800    500.55619    354.66733 
   31900    502.53193   -444.69008 
   32000    502.79678    289.75304 
   32100    502.79308    -580.9543 
   32200    503.13083    204.61587 
   32300    502.32185   -440.94218 
   32400    501.53659    377.91701 
   32500    502.29544    120.62962 
   32600    502.81953   -134.89702 
   32700    497.01254    171.77185 
   32800    498.25228   -234.48076 
   32900    502.80086    122.11643 
   33000    500.01012   -386.03195 
   33100    503.20517      394.127 
   33200    499.78198   -186.64079 
   33300    500.67436      113.342 
   33400    504.12185    332.44352 
   33500    506.12411   -230.43268 
   33600    500.75772   -185.29572 
   33700    497.07946    473.16822 
   33800    496.56196   -337.00161 
   33900    507.47936    306.54421 
   34000    500.53063   -22.361311 
   34100    495.88181   -374.04267 
   34200    497.95919   -229.79846 
   34300    500.13553    548.87656 
   34400    494.82048   -392.11669 
   34500    502.11679    314.27707 
   34600    500.24571   -103.59402 
   34700    498.91348   -7.7068417 
   34800    500.52622    128.77597 
   34900    503.64009   -93.887531 
   35000    500.72864   -336.66423 
   35100    501.56421    378.25016 
   35200    498.51582   -195.67329 
   35300    501.99135    106.94672 
   35400    498.65164    47.087027 
   35500    497.22466    105.43062 
   35600    499.91455    36.617478 
   35700    498.72779    18.897865 
   35800    498.49537    139.44633 
   35900    508.21162   -119.36526 
   36000    499.65046     199.2269 
   36100     497.5888   -432.76031 
   36200     502.2554    304.85771 
   36300    500.48468   -294.18782 
   36400    500.52584    294.31731 
   36500    496.29172   -181.75869 
   36600    500.80157    196.13742 
   36700    502.68475   -133.57574 
   36800    503.69831    95.190556 
   36900    500.25199   -429.90252 
   37000    501.55012   -130.86553 
   37100    496.94832     170.3449 
   37200    500.55542   -137.00389 
   37300    498.61729   -243.20039 
   37400    498.33169    234.18597 
   37500    498.03027    180.68184 
   37600    496.52875   -414.82344 
   37700    504.95483    6.2512398 
   37800    499.58374    196.23034 
   37900    500.48604    -357.3681 
   38000    500.91608    260.83342 
   38100    504.22013   -446.41249 
   38200     500.7858    191.94716 
   38300    496.55712   -102.48824 
   38400    499.86521    245.32571 
   38500    495.10439    150.11652 
   38600    501.17981   -51.565689 
   38700    499.00285    -309.4653 
   38800    497.49964   -42.425925 
   38900    503.76242   -102.10428 
   39000    496.96745   -99.910999 
   39100    493.24615    59.920193 
   39200    500.84334    16.568506 
   39300    502.31747   -291.29517 
   39400    497.49262    318.83335 
   39500    500.80242    -655.8232 
   39600    508.16458    297.93386 
   39700    495.47671    -394.8004 
   39800    499.52958    242.95863 
   39900     501.7636    146.57864 
   40000     501.5461   -538.65105 
   40100    500.89665    496.04402 
   40200     499.9224   -375.82202 
   40300    501.13937    204.41129 
   40400     500.2241   -518.54759 
   40500    502.77442    642.39753 
   40600    499.32656   -667.64783 
   40700    501.52139    776.48985 
   40800    503.55049   -730.96103 
   40900    499.92437    75.763532 
   41000    502.32966   -61.018101 
   41100    500.77106    277.36833 
   41200    498.39188   -439.97184 
   41300    504.42297    172.12543 
   41400    497.33809    155.05432 
   41500    501.55543    201.15416 
   41600    503.38461    -432.8763 
   41700    500.74131    215.79898 
   41800    502.62205    167.19359 
   41900    504.64447   -460.47545 
   42000    501.89738    439.00342 
   42100    504.31248   -395.37095 
   42200    503.45029     376.8816 
   42300    504.38725   -188.74419 
   42400    500.59157    47.994246 
   42500    501.53502    379.12287 
   42600    497.33503    156.87578 
   42700     498.7315   -170.50984 
   42800    502.48223    120.16401 
   42900     499.6868   -334.56554 
   43000    507.45182    334.22559 
   43100    499.79316    -597.5963 
   43200    498.79143    235.56656 
   43300     499.5055   -157.25797 
   43400    499.54441   -38.052588 
   43500    498.28495    -76.68361 
   43600    503.19058    321.99295 
   43700    501.48421   -34.580512 
   43800       498.49    38.774095 
   43900     506.3155   -73.664298 
   44000     501.0153   -69.058021 
   44100    498.39498   -147.00358 
   44200     500.7933   -53.570032 
   44300    499.87943    19.363015 
   44400    498.65998    53.143086 
   44500    503.68455    150.61625 
   44600    503.39521   -121.68656 
   44700    497.02113    89.572414 
   44800     502.3413    75.331088 
   44900    501.26709   -5.0219164 
   45000    501.57529    42.415456 
   45100    498.23406   -407.55068 
   45200    500.89464   -107.17552 
   45300     498.4223    321.17083 
   45400     495.7007   -386.60939 
   45500    493.87874    215.12211 
   45600     502.4546   -144.33007 
   45700    499.19395     53.47107 
   45800    496.84775   -130.42299 
   45900    494.66514    322.66171 
   46000    498.98856   -311.97837 
   46100    505.73804    197.65593 
   46200     498.7525    -124.7096 
   46300    497.77546    -188.8536 
   46400    505.80743   -36.783108 
   46500    501.86331    14.921348 
   46600     500.3531   -173.92834 
   46700    502.41931   -252.74686 
   46800    501.14455    56.806438 
   46900    496.64723     125.2225 
   47000    494.86966   -162.84093 
   47100    498.31083    22.810254 
   47200    498.28734    179.86652 
   47300    503.56593   -488.89391 
   47400    497.32452    415.19977 
   47500    502.23311    -421.3338 
   47600     502.9823    156.10942 
   47700    493.20144   -245.65305 
   47800    503.74628    4.9183335 
   47900    503.62708    75.733612 
   48000    494.82806   -90.772126 
   48100      502.433   -316.60694 
   48200    504.06439    284.52798 
   48300    506.14817   -18.794167 
   48400    501.26809   -119.82742 
   48500    494.51285    84.996826 
   48600    502.05571   -33.236506 
   48700    502.40425   -120.66151 
   48800    501.04528    201.90226 
   48900    504.06114    35.207955 
   49000    497.46676   -410.06225 
   49100    500.16402    374.07277 
   49200    497.30249   -211.30149 
   49300    498.18333   -83.652157 
   49400    498.50244   -163.68592 
   49500    501.67515      111.956 
   49600    500.09341   -127.98782 
   49700    499.50335    366.51669 
   49800    500.78815   -150.21745 
   49900    501.19607    224.80267 
   50000    494.89226    -341.3622 
Loop time of 193.589 on 8 procs for 50000 steps with 10000 atoms

Performance: 11.158 ns/day, 2.151 hours/ns, 258.279 timesteps/s
98.2% CPU use with 8 MPI tasks x no OpenMP threads

MPI task timing breakdown:
Section |  min time  |  avg time  |  max time  |%varavg| %total
---------------------------------------------------------------
Pair    | 54.722     | 97.649     | 123.36     | 263.2 | 50.44
Bond    | 15.119     | 26.882     | 33.224     | 126.1 | 13.89
Neigh   | 16.885     | 16.904     | 16.928     |   0.4 |  8.73
Comm    | 12.216     | 44.651     | 100.15     | 492.7 | 23.06
Output  | 0.0105     | 0.01184    | 0.015937   |   1.5 |  0.01
Modify  | 5.5754     | 6.3693     | 6.7999     |  17.5 |  3.29
Other   |            | 1.122      |            |       |  0.58

Nlocal:    1250 ave 1455 max 761 min
Histogram: 1 0 0 1 0 0 1 1 1 3
Nghost:    4019.38 ave 4184 max 3880 min
Histogram: 1 0 2 3 0 0 0 0 0 2
Neighs:    100408 ave 125538 max 59681 min
Histogram: 1 0 1 0 1 0 1 1 2 1

Total # of neighbors = 803262
Ave neighs/atom = 80.3262
Ave special neighs/atom = 5.988
Neighbor list builds = 2500
Dangerous builds = 0
unfix 1
unfix 2
write_restart 	restart.${simname}.dreiding2
write_restart 	restart.PE_nc10_cl1000.dreiding2

#####################################################
# Equilibration Stage 3 (NPT dynamics from 500 K --> 100 K)
fix		1 all npt temp 500 100 50 iso 0 0 1000 drag 2
fix		2 all momentum 1 linear 1 1 1
thermo_style	custom step temp press
thermo          10
timestep	0.5
reset_timestep 	0
run		50000
WARNING: Inconsistent image flags (../domain.cpp:784)
Per MPI rank memory allocation (min/avg/max) = 6.88 | 7.494 | 7.993 Mbytes
Step Temp Press 
       0    494.89226    -341.3622 
      10    498.06168   -172.44953 
      20    503.51184    104.92868 
      30    495.31468    146.79441 
      40    498.49621    86.136599 
      50    501.22093   -66.254725 
      60    495.82094    -227.2828 
      70    500.80414   -168.35021 
      80    503.75339   -21.210286 
      90    502.94012    75.117178 
     100    505.58712    74.390901 
     110    504.93072   -69.934806 
     120    502.96928   -226.50293 
     130    499.36082   -259.22226 
     140    497.54699   -123.01131 
     150    500.60273     63.38735 
     160    499.68312    86.109536 
     170    502.26436   -1.6569863 
     180    504.97879   -115.50775 
     190    499.31679   -177.95834 
     200    498.95494    -29.51837 
     210    499.08997    177.48436 
     220    495.63207    246.55733 
     230    498.72207    197.58393 
     240    499.21921    43.140052 
     250    496.59409   -54.638768 
     260      497.595      43.7049 
     270    496.01245    196.63933 
     280    496.55833    281.07241 
     290    498.60988     230.0201 
     300    499.17309    107.07693 
     310    502.05632    93.552361 
     320    501.22034    190.17359 
     330    500.68835    304.43562 
     340    500.54706    279.17106 
     350    495.85515    76.170257 
     360    496.79114   -73.624969 
     370    497.71918   -89.082604 
     380    496.45134   -9.2733674 
     390    500.27577    82.675692 
     400    500.48288    10.747833 
     410    501.39712   -146.10959 
     420    501.16302   -261.62689 
     430    499.31122   -239.23245 
     440    503.36757   -51.380609 
     450    499.60016    51.695179 
     460    499.27271    38.119114 
     470    505.59606   -61.260061 
     480    499.81707   -257.29966 
     490    500.23234   -252.91843 
     500    504.98785   -71.393652 
     510    497.72268   -13.734937 
     520    496.91668   -74.770445 
     530    500.57174   -256.85693 
     540    495.02635   -511.97744 
     550    494.47518   -550.45952 
     560    497.26064   -358.26089 
     570    495.12769   -150.42016 
     580    494.65983   -53.126157 
     590     494.7123   -142.84168 
     600     495.9541   -317.74416 
     610    492.78053   -417.95067 
     620    492.70764   -271.03835 
     630    498.29442    31.285444 
     640    494.65061    161.08467 
     650    494.93337    114.15912 
     660    501.14699   -31.145079 
     670    495.13286   -224.51088 
     680    492.95492   -169.25346 
     690    499.22871    136.67555 
     700    495.19151    343.08104 
     710    494.47783    374.80591 
     720    502.14517    237.82042 
     730    499.36057   -52.812155 
     740    495.53539   -175.30857 
     750    499.73705    17.179513 
     760    499.96539    242.57482 
     770    496.02718    262.52031 
     780    497.83468    101.31778 
     790     500.9176   -137.16157 
     800    497.55616   -325.30772 
     810    496.51855   -307.53227 
     820    498.95175   -148.57032 
     830    499.33336   -37.654705 
     840    498.14445   -51.948972 
     850    501.69967     -129.299 
     860    505.87671   -228.81044 
     870    499.99285   -316.06425 
     880     498.2789   -210.19924 
     890    500.26103  -0.75791407 
     900    491.55233    45.721252 
     910    490.30797    2.8684285 
     920    495.19805   -89.578238 
     930      491.553   -209.28973 
     940     492.6184   -142.56442 
     950    496.31726    53.304428 
     960    494.66822    178.19036 
     970    495.57775    196.33035 
     980    496.52781     110.3318 
     990     495.6237    29.505177 
    1000    495.68575    63.629508 
    1010    493.64539    156.04032 
    1020    492.40424    226.19252 
    1030    492.53316    198.49072 
    1040     491.8862    80.495911 
    1050    492.14498   -2.5149707 
    1060    493.82362    27.311035 
    1070    493.54951    115.43847 
    1080    490.44447    173.78145 
    1090    491.05287    177.21111 
    1100    491.52042    89.675765 
    1110    488.42852   -21.236534 
    1120    491.84382    7.9572673 
    1130    493.59055    83.212631 
    1140    489.32111    66.494983 
    1150    492.33951   -7.9515333 
    1160     493.9192   -162.95861 
    1170     491.2006   -286.46831 
    1180    494.16357    -224.7101 
    1190    495.78469    -106.4733 
    1200    493.28308   -88.561167 
    1210    492.39105   -176.04739 
    1220    490.94337   -305.75666 
    1230    490.40631    -355.6324 
    1240    490.68101   -290.71987 
    1250    490.93147   -155.22303 
    1260    493.39304   -19.392337 
    1270    492.55923   -16.656706 
    1280    491.22203   -125.68331 
    1290    492.14482   -237.93742 
    1300     490.1936   -288.08884 
    1310    490.90115   -163.38741 
    1320    491.77444     66.97903 
    1330    491.19646    223.78893 
    1340    493.76718    212.31252 
    1350    492.25303     1.842622 
    1360     491.7213   -197.45772 
    1370    493.95404   -182.31174 
    1380      490.378    12.965865 
    1390    491.69454    280.00771 
    1400    494.83795    344.13167 
    1410    490.12204    82.611355 
    1420    492.78425   -178.95772 
    1430    498.42934    -229.3592 
    1440    492.52462   -121.82939 
    1450    492.69306    127.47658 
    1460    497.07775    281.03077 
    1470    490.54538    129.67143 
    1480    489.36474   -84.521402 
    1490    494.63022    -181.5624 
    1500    491.50369   -200.23821 
    1510    490.42419   -86.569112 
    1520    493.77018    61.932874 
    1530    491.05974    31.529827 
    1540    487.79406   -146.89904 
    1550    488.99258   -321.83378 
    1560    488.23248   -416.00846 
    1570    485.77524   -361.57265 
    1580    488.78538   -167.26839 
    1590    491.99864   -42.871813 
    1600    488.89321   -121.51782 
    1610    489.40718    -231.5884 
    1620    492.35334    -236.5557 
    1630    487.29604    -153.5713 
    1640    486.87165    46.327142 
    1650    490.49917    209.17954 
    1660    488.79006    183.72866 
    1670     490.1291    91.444981 
    1680    491.97201    11.965151 
    1690    488.86522   -26.757625 
    1700    487.17812    31.083277 
    1710    485.37826    93.605325 
    1720    483.66317    70.310091 
    1730    486.76519   -20.067332 
    1740    490.13099   -153.41464 
    1750    490.99126   -250.86909 
    1760    493.10027    -222.4498 
    1770    491.26522   -150.51404 
    1780    485.91461   -95.865684 
    1790     485.5032   -3.3074931 
    1800    486.03047    88.391129 
    1810    484.99805    114.85775 
    1820     487.3341    67.956483 
    1830      490.247   -57.031931 
    1840    489.59125   -167.71687 
    1850    490.69243   -89.851751 
    1860    492.94341    128.86716 
    1870    492.14182    255.84956 
    1880    493.37985    182.28979 
    1890    493.26952   -72.477994 
    1900    488.49727   -319.36265 
    1910     486.6162    -303.0378 
    1920    485.77377    -69.84221 
    1930    482.70451    121.21643 
    1940    485.13092    136.53044 
    1950    488.42544   -56.647855 
    1960    484.55728   -337.79495 
    1970    484.41103   -407.51515 
    1980     486.0879   -228.22922 
    1990    482.75862    11.858426 
    2000    483.39762     209.5532 
    2010    488.23059    246.77035 
    2020    487.21228    33.157642 
    2030    484.25319   -234.45798 
    2040    486.53058   -279.97142 
    2050    483.67586      -124.98 
    2060      480.316    130.40358 
    2070    486.34024    316.39353 
    2080    488.91909    148.42423 
    2090    486.90059   -290.00167 
    2100    489.18359    -602.4616 
    2110    489.99409   -566.09383 
    2120    487.49891   -211.44948 
    2130    488.43698     203.3279 
    2140    490.77544      300.194 
    2150    489.79686   -19.355829 
    2160    487.96535   -419.66557 
    2170    488.97096   -491.68496 
    2180    487.38361   -203.50058 
    2190    485.16204    179.15878 
    2200    491.11336    371.93462 
    2210    491.77067    168.77585 
    2220    489.30749   -186.21832 
    2230    494.37815   -309.65876 
    2240    490.99683   -229.54444 
    2250    485.49018   -12.267085 
    2260      488.416    224.36218 
    2270    485.68642    228.89633 
    2280    482.74794    78.124973 
    2290    485.65612   -21.460743 
    2300    484.35291    -11.64024 
    2310    483.08147    163.48572 
    2320    485.52392    430.98426 
    2330    485.46261    591.81655 
    2340    485.99912    587.27462 
    2350    485.99068    443.29033 
    2360    484.88016    266.37071 
    2370    485.77115    177.88816 
    2380    483.73574     174.2671 
    2390    484.05868    266.62616 
    2400    484.69393    340.68405 
    2410    482.00555    264.25257 
    2420    484.08016    90.778845 
    2430    483.15842   -155.08046 
    2440    481.06585   -339.70374 
    2450    484.66723   -327.07255 
    2460     481.9259   -225.09704 
    2470    480.11262   -75.727507 
    2480     482.1494    21.918045 
    2490    478.91464   -73.508219 
    2500    479.20657   -251.19358 
    2510     481.6925   -372.85816 
    2520    480.64575   -333.49423 
    2530     483.6268   -75.376857 
    2540    485.99763    187.50826 
    2550    484.25504    227.05037 
    2560    486.60029    51.887474 
    2570    486.29456   -238.24067 
    2580    482.84385   -387.76664 
    2590    484.93987   -204.72329 
    2600    485.20454    106.69375 
    2610    482.87413     275.7069 
    2620     484.1445    199.28565 
    2630    484.64588   -94.520599 
    2640    483.02126   -383.09033 
    2650    484.50802   -408.69389 
    2660    486.64753   -187.28074 
    2670    485.59066    63.631145 
    2680    484.52416    167.23868 
    2690    485.09008    60.864184 
    2700    483.61447   -163.76532 
    2710     479.8569    -281.0213 
    2720    482.09252   -131.95117 
    2730    484.54997    111.92399 
    2740    481.35076    224.42834 
    2750    484.26932    208.95572 
    2760    487.27964    46.629777 
    2770    482.29267   -193.98595 
    2780    483.19641   -261.93896 
    2790    486.29629   -152.52604 
    2800    482.51219   -15.805164 
    2810    482.26159    102.77484 
    2820     485.6255    105.77737 
    2830    482.82602   -56.411136 
    2840    480.29867   -191.76969 
    2850    482.55013   -165.10873 
    2860    481.12836   -65.380111 
    2870    478.27275     44.10195 
    2880    480.95997    134.30886 
    2890    481.98912     102.7012 
    2900    478.18813   -34.437652 
    2910    480.25703   -103.14918 
    2920    481.04314    -115.0788 
    2930     476.6099   -123.72609 
    2940    478.77704   -81.509691 
    2950    478.55912    -72.65123 
    2960    474.87458   -77.072966 
    2970    477.00305   -19.906521 
    2980    477.58059   -15.115017 
    2990    477.96663   -62.759994 
    3000     480.6848   -60.568891 
    3010    480.65352    20.223679 
    3020    481.80479    175.04335 
    3030    481.77846    263.12066 
    3040    479.62174    177.93699 
    3050    480.97009    11.815671 
    3060    479.88062   -114.34877 
    3070    479.73251   -62.203224 
    3080    483.96835    133.18814 
    3090    481.20259    212.08246 
    3100    480.14203    131.05857 
    3110    482.37375    -43.12538 
    3120    476.62283   -221.18501 
    3130    476.01712   -170.18774 
    3140    478.99254    50.108355 
    3150    476.28971    200.60912 
    3160    477.04063    222.11501 
    3170     479.2256    109.95989 
    3180    478.25382   -25.975246 
    3190    478.32853   -12.175798 
    3200    477.84885     144.7861 
    3210    479.18147      342.212 
    3220    479.09867    416.73207 
    3230    476.50807    323.48649 
    3240    479.66492    191.26362 
    3250    478.79088    29.828926 
    3260     476.9318   -46.602793 
    3270      480.272     54.20219 
    3280    477.31501    168.13718 
    3290    476.39517    220.98134 
    3300    478.18475    118.34988 
    3310    474.36137   -158.54953 
    3320    475.58584    -334.5669 
    3330    475.52832   -325.32017 
    3340    473.31486   -197.15126 
    3350    475.94207   -55.515387 
    3360    471.67017   -102.61126 
    3370    470.80388    -235.7824 
    3380    476.11841   -322.42183 
    3390    472.06506    -391.6208 
    3400    474.65553   -305.79125 
    3410    479.60608   -170.92846 
    3420     474.5536   -168.79012 
    3430    476.95065   -168.57101 
    3440    479.00414   -168.91149 
    3450    477.21932   -153.61082 
    3460    480.30015   -75.870745 
    3470    478.31848   -49.440951 
    3480    475.79773   -38.221914 
    3490    473.78207    -8.318919 
    3500    470.81868    39.996932 
    3510    473.87593    119.18886 
    3520    476.21715    123.50365 
    3530    478.07322    71.052681 
    3540    480.55298    31.374467 
    3550    479.30242    19.131524 
    3560    478.73207    67.905159 
    3570    477.10383    102.18265 
    3580    475.48213    72.602417 
    3590    475.96162    -7.924707 
    3600    473.51798   -135.67381 
    3610    472.90544    -210.8074 
    3620    472.66085   -210.04513 
    3630    470.83981   -165.34288 
    3640    473.35699   -81.949037 
    3650    475.63775   -53.294289 
    3660     475.7409   -110.77232 
    3670    475.77109   -192.84061 
    3680     473.5345   -244.81624 
    3690    472.74563    -208.0089 
    3700    471.56812   -137.00103 
    3710    470.47768   -92.166684 
    3720    474.28559   -72.955958 
    3730    474.16901   -123.22729 
    3740    472.31732   -151.18541 
    3750    476.07652   -63.472566 
    3760    474.87881    17.350316 
    3770    474.34678    73.818077 
    3780      479.513    107.26518 
    3790    478.49883    42.320993 
    3800    476.94099   -4.2830389 
    3810    476.86225    34.671938 
    3820     473.6742    100.35045 
    3830     470.3967    155.45867 
    3840    470.18064    172.18286 
    3850    472.21559    121.63389 
    3860    471.06151    -4.298869 
    3870    472.47137   -91.878358 
    3880    476.31314   -108.13509 
    3890     474.9936   -131.28726 
    3900    475.90775   -147.41264 
    3910    478.65269   -191.14294 
    3920     475.4936    -292.9769 
    3930    471.38849   -349.47403 
    3940    471.72613   -319.03662 
    3950    468.73175   -330.60309 
    3960    466.72872   -389.56006 
    3970     471.5795   -422.09926 
    3980     470.4538    -463.2061 
    3990     468.8384   -424.51493 
    4000    471.95133    -287.3764 
    4010    466.81249   -219.28022 
    4020    465.40322   -178.44345 
    4030    468.94787   -170.87611 
    4040    466.18453   -247.53445 
    4050    469.07932   -239.99671 
    4060    472.62494   -143.00072 
    4070    468.09187   -52.032101 
    4080    468.92037    58.396709 
    4090    469.71674    76.875779 
    4100     464.3378   -33.319732 
    4110    467.14901    -61.50313 
    4120     469.3588    22.688616 
    4130    466.09362    178.66228 
    4140     468.6855    373.31365 
    4150    468.76911    402.24408 
    4160    465.49304    246.73482 
    4170     467.0161    129.36715 
    4180    467.36995    178.99904 
    4190    467.71974    391.53747 
    4200    470.74321     581.4398 
    4210    469.70038    512.82446 
    4220    469.55611    250.68909 
    4230      471.851    10.469755 
    4240    468.58549   -66.646705 
    4250    469.38187    120.94433 
    4260    474.15059    380.96382 
    4270    469.78592    373.14052 
    4280    469.95854    147.91005 
    4290    473.25758   -134.70833 
    4300    466.97306   -320.00538 
    4310    467.31024   -168.87745 
    4320    471.99554    132.16366 
    4330    465.91981    168.58997 
    4340     465.1112   -39.745011 
    4350    470.32806   -313.34216 
    4360    467.05782   -499.89989 
    4370    467.81388    -379.8893 
    4380    473.24298   -80.147879 
    4390    471.66216    53.082268 
    4400    470.33575   -39.019853 
    4410    472.52039   -226.67338 
    4420    470.89752   -394.86707 
    4430    468.79193   -405.30719 
    4440    468.16177   -229.63726 
    4450    468.77432    10.327564 
    4460    468.76476    126.99182 
    4470    466.54047    49.395548 
    4480    468.35064   -90.153285 
    4490    468.25976   -189.58879 
    4500    464.43139   -134.29344 
    4510     467.6417    133.08937 
    4520    468.09941    355.87547 
    4530    464.29577    389.37662 
    4540    467.66532    325.03158 
    4550    468.88936     172.2891 
    4560    466.39421    42.264812 
    4570    468.78561    87.860465 
    4580     470.9663    229.47753 
    4590    468.43508    301.50275 
    4600     468.1517    258.80986 
    4610    469.88618    104.89845 
    4620    465.76764   -119.97891 
    4630    465.05594   -222.03933 
    4640    468.13124   -176.23213 
    4650     464.0754   -153.60667 
    4660    464.89808   -133.17549 
    4670    466.87449   -146.29379 
    4680    462.82349   -215.36297 
    4690    466.52255   -206.00806 
    4700    467.18824   -203.00769 
    4710    462.70852   -216.81568 
    4720    465.46165   -131.36006 
    4730    464.17635   -41.850332 
    4740     461.3862    16.153411 
    4750    464.72033    21.156754 
    4760    465.23528   -104.77704 
    4770    463.18922   -244.06451 
    4780    463.41271    -225.7804 
    4790    464.68209   -49.795612 
    4800    463.72551    116.24895 
    4810    464.51473    143.33116 
    4820    468.89055    35.135846 
    4830    468.75958    -128.1867 
    4840    467.18527   -163.46055 
    4850    468.11648   -4.6961361 
    4860    464.17438    176.23606 
    4870    461.14629    267.21051 
    4880    462.07852    217.52542 
    4890    462.44298    44.519567 
    4900    465.35008   -91.108086 
    4910     465.4908   -112.11517 
    4920    468.13195    25.617371 
    4930    472.61036    185.83545 
    4940    465.36113    123.12926 
    4950    466.57333    -14.53424 
    4960    471.96546   -165.44174 
    4970    461.04105   -353.46722 
    4980    464.25814   -245.95643 
    4990    470.84646   -14.794634 
    5000    460.47327   -9.5996749 
    5010    464.08991   -62.109199 
    5020    468.34513   -193.41225 
    5030    459.45318   -343.25154 
    5040    458.85176   -237.04164 
    5050     458.6885   -24.125657 
    5060    455.15007    74.994694 
    5070     454.2783    18.071282 
    5080     457.3037    -98.33126 
    5090     461.7769   -138.97931 
    5100     462.1015   -69.759404 
    5110    465.65323     124.2757 
    5120    466.70656    260.73097 
    5130    460.71395    196.60493 
    5140    461.99256    78.074971 
    5150    461.87323   -46.867029 
    5160    457.78084   -101.77016 
    5170    461.37254     17.00372 
    5180    461.09079    118.18214 
    5190    459.56842    100.80342 
    5200    461.99246   -7.2258611 
    5210    459.29555   -169.96882 
    5220    460.93191   -195.87583 
    5230    462.54133   -103.50253 
    5240    459.15303    -6.939996 
    5250    461.38852    94.451306 
    5260    459.77955    85.711355 
    5270     457.0362   -1.3636396 
    5280    459.06071   -75.759521 
    5290    457.91952   -139.19702 
    5300    458.76806   -113.17685 
    5310    457.90791   -46.443438 
    5320     457.6559    18.797964 
    5330    460.00199    28.250558 
    5340    457.98056   -89.601919 
    5350      460.959   -184.25308 
    5360    462.31997   -217.89611 
    5370    458.36081   -181.03344 
    5380    460.71794   -15.083097 
    5390    459.56211    91.644065 
    5400    458.72986    72.175754 
    5410    462.37897   -32.870805 
    5420    460.51817   -198.50039 
    5430    461.89079   -241.01016 
    5440    462.08824   -165.06707 
    5450     458.1654   -57.230516 
    5460    461.78405     55.43445 
    5470    460.41686   -21.723731 
    5480     460.4043   -206.17109 
    5490    466.66736   -331.44352 
    5500    460.66446    -410.1618 
    5510    460.96558   -242.61671 
    5520    463.73195    17.155568 
    5530    455.25092    54.299857 
    5540    458.65405   -43.673963 
    5550    460.57255   -293.24091 
    5560    455.93371   -497.04169 
    5570    460.36084   -346.04001 
    5580    459.34821   -32.606802 
    5590    455.99211    200.85635 
    5600    456.74215    195.23018 
    5610    454.36921   -81.174966 
    5620    455.18696   -331.35718 
    5630    454.67606    -344.1054 
    5640    454.13078   -87.626277 
    5650    457.25999    239.90103 
    5660    452.60423    273.53764 
    5670    452.00687    40.977457 
    5680     455.9728    -246.7316 
    5690    452.77472   -387.13517 
    5700    456.13571   -173.88706 
    5710    460.36018    150.17353 
    5720    456.60989    240.32496 
    5730     457.2477    105.77403 
    5740    457.29185   -142.40323 
    5750    454.43591   -287.02657 
    5760    455.84096    -168.5128 
    5770    456.71725    81.605914 
    5780    458.29555    290.58786 
    5790    457.83381    301.42251 
    5800    456.59494    148.34118 
    5810    458.60602    24.385302 
    5820    455.89746    5.3965223 
    5830     454.9243    154.31721 
    5840    457.99502    364.06107 
    5850    457.99549    400.50636 
    5860    457.41162    224.21309 
    5870    456.51642   -22.981097 
    5880    458.18584   -117.54723 
    5890    458.30687   -27.557798 
    5900    456.35157    136.41536 
    5910    459.99213    247.96376 
    5920    460.12554    117.47851 
    5930    456.88932   -156.98403 
    5940    458.81393   -281.96999 
    5950    458.45494   -200.46618 
    5960    456.98737    11.240349 
    5970    457.68327    160.57752 
    5980    457.25105    48.005748 
    5990    458.69972   -238.52171 
    6000      456.177    -473.7385 
    6010    455.66504   -399.79936 
    6020    458.47248   -82.934474 
    6030     454.7932    113.37164 
    6040    456.64572    74.852796 
    6050    459.26021   -178.40735 
    6060    456.73625   -416.78286 
    6070     459.5178   -328.21713 
    6080    458.94718   -31.438261 
    6090    456.09148    213.64291 
    6100    455.44193    213.07593 
    6110    453.98963    -40.99265 
    6120    454.32243   -282.45063 
    6130    455.51659   -285.45447 
    6140    456.28665   -55.056247 
    6150    457.10228    201.14877 
    6160    456.83895    245.48753 
    6170    455.72094    35.898233 
    6180    455.35075   -250.93957 
    6190    455.95338   -397.82031 
    6200    455.74278   -324.84439 
    6210    455.16301   -113.14436 
    6220    454.23182    40.677527 
    6230    452.35865   -29.714685 
    6240    449.77832    -305.8821 
    6250     448.8101   -563.70746 
    6260    448.98643   -580.70858 
    6270    449.41399   -320.42535 
    6280    451.85923    31.402508 
    6290    452.92509    164.29037 
    6300    453.07618   -17.652049 
    6310    453.63491   -310.27156 
    6320     452.0571   -422.55331 
    6330    452.09074   -175.89523 
    6340    453.66936    266.37174 
    6350    453.59979    540.32982 
    6360    452.50131    456.44247 
    6370    453.13131    158.72783 
    6380     454.3461   -47.920821 
    6390    450.68526    27.663749 
    6400    450.61345    392.09043 
    6410     455.3074    735.30151 
    6420     451.2816    690.59346 
    6430    449.78085    387.46287 
    6440    454.96239    115.61428 
    6450    450.67498   -2.6801132 
    6460    449.99889    184.23108 
    6470    456.12259    483.12399 
    6480    451.65655    480.57623 
    6490     449.9875    218.98157 
    6500    453.91954   -99.694878 
    6510    449.20578   -313.41709 
    6520    448.78111    -170.5532 
    6530    454.03859    197.66633 
    6540    452.90427    396.23341 
    6550    453.50199    331.63603 
    6560    455.38506    101.45027 
    6570     451.4803   -98.384442 
    6580    451.06569   -21.449111 
    6590    452.91617    250.25013 
    6600    451.08382    441.77649 
    6610     452.7881    446.39015 
    6620    456.29638    264.75883 
    6630    453.96563     13.17874 
    6640    450.80061   -59.404624 
    6650    452.43906     139.8613 
    6660    450.20106    380.78895 
    6670    447.80216    483.28147 
    6680    451.04897    403.16284 
    6690    449.95575    150.76604 
    6700    447.61741   -42.310174 
    6710    449.27629    7.6245251 
    6720    448.30754    190.27632 
    6730    447.59129    334.97892 
    6740    447.74798    284.91349 
    6750    447.38184    24.048105 
    6760    447.37421   -269.85143 
    6770    446.27831   -391.07206 
    6780    447.84751   -241.45623 
    6790    450.24259    17.634886 
    6800    450.68046    140.36133 
    6810    452.19554    39.019133 
    6820    453.86498   -211.78174 
    6830    451.60737     -437.902 
    6840    448.89773   -456.34028 
    6850    450.14133   -262.19666 
    6860    448.39498   -85.148935 
    6870    445.87791   -73.447184 
    6880    447.78738   -226.78466 
    6890    447.69549   -492.12981 
    6900    445.88141   -695.96249 
    6910    446.81019   -690.01762 
    6920    449.44012   -503.05879 
    6930    448.21436   -320.36102 
    6940    449.61397   -250.60515 
    6950    452.86915   -345.96572 
    6960    450.27774   -560.98432 
    6970    449.37263   -666.97314 
    6980    449.15417     -567.459 
    6990    447.02827   -329.04421 
    7000    446.68373   -96.344232 
    7010    447.09504   -49.919615 
    7020    449.05144   -228.90878 
    7030    448.35159   -522.88158 
    7040    447.31038   -653.88179 
    7050    449.44739   -452.46983 
    7060    446.90881   -102.90252 
    7070    446.57645    169.78634 
    7080    449.52541    158.62075 
    7090    448.35318   -154.44375 
    7100     449.0482   -443.98129 
    7110    449.81283   -462.39849 
    7120    447.36116   -201.08354 
    7130     446.4751    165.42288 
    7140    444.49302    322.87812 
    7150    443.08225    164.83458 
    7160    443.84585   -161.04985 
    7170    443.80339   -417.62158 
    7180    446.95146   -363.03417 
    7190    447.89982   -49.341244 
    7200    444.68816    257.48413 
    7210    445.31191    329.26168 
    7220    443.38468    23.369151 
    7230    440.14352   -434.74216 
    7240    444.04708   -601.83799 
    7250    444.37631   -379.59606 
    7260    443.01586    51.031366 
    7270    445.18703    331.59009 
    7280    441.90871    136.95832 
    7290    440.25012   -340.27081 
    7300     442.3648   -655.59089 
    7310    442.08919   -543.95678 
    7320    443.94837   -82.204943 
    7330    445.02629    286.38933 
    7340    444.64398    230.60149 
    7350    444.93748   -175.53775 
    7360     442.4579   -567.36072 
    7370    443.44978    -544.2665 
    7380    445.68679   -160.76086 
    7390     443.5758    187.55566 
    7400    443.89994     236.2443 
    7410    445.01939   -60.346638 
    7420    441.45614   -464.42178 
    7430    439.62149    -579.2002 
    7440    440.35464   -318.94041 
    7450       439.92    51.853396 
    7460    440.63719    226.90429 
    7470    444.50193    75.425482 
    7480    446.84852   -273.78372 
    7490    446.79724   -493.76842 
    7500    449.12829   -360.00347 
    7510    449.40018   -26.593163 
    7520      447.104    210.07623 
    7530     446.6718    171.57994 
    7540    444.63109   -123.41681 
    7550    441.18917   -410.08733 
    7560    441.58565   -416.71958 
    7570    440.08333   -179.48454 
    7580    437.11723    115.23109 
    7590    441.63481    289.34593 
    7600    439.58718    122.94177 
    7610      435.641   -195.26814 
    7620      442.097   -315.83092 
    7630    439.84568   -265.94676 
    7640    437.82954   -34.436357 
    7650    445.55946    240.96708 
    7660    441.84837    188.69445 
    7670    438.96819   -81.213606 
    7680    442.89918   -333.04014 
    7690    438.06367   -483.66232 
    7700    437.60591    -320.4722 
    7710    442.06501    51.519504 
    7720    440.74356    274.34633 
    7730    442.06834    218.90683 
    7740    443.11819   -98.586602 
    7750     440.6364   -456.09712 
    7760    441.52664   -525.59392 
    7770    441.92286   -276.71356 
    7780    441.83193    72.140679 
    7790    445.15573    241.25171 
    7800    445.00853    31.082283 
    7810    443.35165   -381.55998 
    7820    444.31998   -603.13601 
    7830    441.35182   -449.33235 
    7840    438.98746    1.8368533 
    7850     440.6278    402.57637 
    7860    440.64887    389.63196 
    7870    440.94315    11.500776 
    7880    442.73216   -350.09051 
    7890    443.50468   -347.83057 
    7900    442.23423    50.776621 
    7910    440.82595    547.80907 
    7920    440.78779    745.22297 
    7930     438.5546    466.58951 
    7940    438.30941  -0.45337706 
    7950    442.37963   -230.35075 
    7960    441.60152   -97.494684 
    7970    440.93709    283.23533 
    7980    444.36419    563.05315 
    7990    440.49045    384.82565 
    8000    437.07507    -72.30363 
    8010    441.62493   -384.88092 
    8020    442.01147   -391.58595 
    8030    440.86112   -116.31438 
    8040    444.70903    191.28854 
    8050    444.15166    173.71082 
    8060    437.69975   -156.15612 
    8070    435.63597   -432.71722 
    8080    437.24238    -434.8562 
    8090    433.92531   -246.59888 
    8100    432.30304   -1.8365368 
    8110    438.84932    153.89714 
    8120    437.76638    40.942718 
    8130    432.72898   -163.94869 
    8140    438.31603   -168.77448 
    8150    438.54276   -79.354146 
    8160    433.46667    25.027441 
    8170    439.90177    165.91202 
    8180    443.03768     121.6569 
    8190    438.86566   -89.466018 
    8200    443.42223   -165.32474 
    8210    446.54559    -106.4134 
    8220    443.40538   -10.108074 
    8230    443.34483    75.165043 
    8240    443.03654     15.64885 
    8250    439.58051   -186.89984 
    8260    436.90332   -347.19473 
    8270    439.04095   -319.90097 
    8280    440.56526   -187.93986 
    8290    438.46684   -105.95998 
    8300    440.37732   -107.68544 
    8310    441.32331   -209.68824 
    8320    435.19374    -328.6418 
    8330     434.6014   -259.43993 
    8340    436.65449   -79.802866 
    8350    432.29513   -6.1627638 
    8360    433.62105   -18.309827 
    8370    436.53688   -103.67652 
    8380    432.16452   -192.74933 
    8390    432.48661   -74.746682 
    8400    434.39341     161.1473 
    8410    431.93518    270.87467 
    8420    434.04281    208.97091 
    8430     436.4185    23.343915 
    8440    435.78037   -108.45383 
    8450    435.50255   -36.371309 
    8460    433.90244    150.30222 
    8470    434.13899    292.08069 
    8480    432.76549    247.53163 
    8490    431.45558    80.356175 
    8500    434.70812   -37.316627 
    8510    433.81524   -84.348898 
    8520    434.56416   -13.254426 
    8530    437.67575    109.42002 
    8540     435.4851    141.08794 
    8550    437.39543    135.35853 
    8560    438.87183    87.039038 
    8570    436.14124    21.430651 
    8580    440.44678    69.356908 
    8590     440.1539    126.50619 
    8600    436.11751    165.38004 
    8610    440.99271    236.76857 
    8620    438.89867    165.60292 
    8630    435.02583    27.643443 
    8640    440.60228   -7.4815226 
    8650    439.69334   -18.402973 
    8660    435.80241    47.130814 
    8670    438.24016    218.22928 
    8680    436.24255    275.28281 
    8690    430.79232    129.65122 
    8700    431.82457   -92.162492 
    8710    432.37325   -275.26625 
    8720    429.96226   -263.76023 
    8730    432.02241    13.197334 
    8740    433.49627    310.32404 
    8750      430.943    361.05262 
    8760    431.59989    169.24975 
    8770    432.67897   -124.01366 
    8780    430.44273   -288.63422 
    8790    431.24573   -123.42193 
    8800    432.64947    221.82325 
    8810    431.25851    408.66098 
    8820    431.98797    292.79728 
    8830    431.53324   -29.473069 
    8840    433.23065   -227.24991 
    8850    434.39789   -142.29243 
    8860    431.97734    108.34492 
    8870    435.31854    347.26691 
    8880    434.05772    297.48262 
    8890    429.75373    15.410828 
    8900     434.1206   -176.30599 
    8910     432.1781    -216.7358 
    8920    429.90636   -53.632621 
    8930    434.47641    200.21957 
    8940    431.57918    212.71902 
    8950    430.32205    10.007037 
    8960    432.89079   -227.50094 
    8970    429.23138     -373.522 
    8980    429.18694   -269.76755 
    8990    430.16956   -54.911191 
    9000    429.29481    34.956681 
    9010    432.07492   -55.634745 
    9020    430.11985   -279.99915 
    9030    429.58719   -381.17071 
    9040     431.9535   -259.66217 
    9050    428.61382   -77.825112 
    9060    429.28034    63.824135 
    9070    431.62404    24.134682 
    9080    429.03477   -194.43421 
    9090    429.41627   -340.10233 
    9100    429.50226   -307.13306 
    9110    428.79054   -138.58302 
    9120    428.94833    5.7165063 
    9130    429.05697   -31.127139 
    9140    432.90252   -197.04288 
    9150    432.10194   -375.17144 
    9160    430.34342   -341.47735 
    9170    435.11961   -35.252466 
    9180    431.61949    197.83631 
    9190    427.87096     192.0931 
    9200    432.91562   0.37382244 
    9210    430.96212   -275.80938 
    9220    428.54407   -279.27851 
    9230    432.31567    88.909015 
    9240    431.36834    421.43414 
    9250     427.3364    375.42991 
    9260    428.92349    4.8813069 
    9270    430.37563   -386.89807 
    9280    428.60689   -435.88275 
    9290    430.77506    -31.01603 
    9300    433.15404    438.12955 
    9310    429.21891    475.94328 
    9320    427.70266    65.762914 
    9330    429.13172   -438.36829 
    9340    427.83503   -620.35744 
    9350    429.64091   -260.69453 
    9360    432.75609    332.80312 
    9370    431.86158    603.17165 
    9380    431.02054    334.44287 
    9390    428.86834   -237.38377 
    9400    426.91711   -589.79977 
    9410    428.76414   -383.11747 
    9420    428.40507    166.75124 
    9430    430.47105    602.18419 
    9440    433.21001    518.66589 
    9450    428.63128   -71.691982 
    9460    428.28299   -587.05663 
    9470    428.72505   -617.50061 
    9480    425.47154   -188.32468 
    9490    428.04138    382.42649 
    9500     430.9909     576.5923 
    9510     428.6852    204.87457 
    9520    427.95624    -346.7372 
    9530    428.33538   -586.71376 
    9540     425.2616   -338.48043 
    9550    423.41227    209.60858 
    9560    424.60715    600.90052 
    9570    426.49617    481.18831 
    9580    425.37025   -63.444101 
    9590    423.25085   -530.91733 
    9600    425.88381   -481.71372 
    9610    423.58826   -35.117926 
    9620    419.19035    436.21981 
    9630    422.75739    594.31199 
    9640    421.47902    241.33835 
    9650    417.50047    -271.5877 
    9660    421.70928   -417.84298 
    9670    423.04656    -147.9089 
    9680    421.32171    297.79001 
    9690    424.78796     579.6088 
    9700    426.62863     400.5224 
    9710    424.84753   -112.09176 
    9720    425.42414   -516.93867 
    9730    426.12751   -554.37554 
    9740    424.78199   -298.06428 
    9750    425.82919   -12.190563 
    9760    428.54477    23.195199 
    9770    427.90885   -253.58473 
    9780    427.79344   -578.00116 
    9790    427.87991   -691.58254 
    9800    427.33633   -525.17489 
    9810    427.65813   -213.36353 
    9820     427.3034   -12.849398 
    9830     428.5296   -42.297655 
    9840    428.50441   -246.93354 
    9850    424.05795   -445.43285 
    9860    423.47043   -422.38643 
    9870    423.09164   -241.98844 
    9880    419.28312   -81.064016 
    9890    422.67062     36.08461 
    9900     425.8597    30.970732 
    9910    422.93939   -80.209237 
    9920    424.72014   -115.25853 
    9930    424.60251   -79.795528 
    9940    422.19343    7.0430047 
    9950    423.67857    134.28415 
    9960    425.09061     194.1768 
    9970    426.34808      154.358 
    9980    424.15845    42.602425 
    9990    424.28631   -3.7890093 
   10000    424.61403    13.942175 
   10010    416.80226    -13.68235 
   10020    419.01397     36.14987 
   10030    423.79794    76.690846 
   10040     417.4441 -0.0019306093 
   10050      422.712    23.483683 
   10060    428.84987    28.980817 
   10070    419.84931    -128.3271 
   10080    422.08303   -154.38319 
   10090    426.32386   -84.052013 
   10100    418.13668   -72.798979 
   10110    420.05675    6.3176014 
   10120    423.22453    4.0120273 
   10130    418.53938   -163.48152 
   10140    419.17965   -270.76117 
   10150    421.14577   -241.04978 
   10160    421.57888   -104.92161 
   10170    422.13886     55.28969 
   10180    422.55262     131.9368 
   10190    423.75248    94.054119 
   10200    422.64153   -14.525983 
   10210    421.30416   -58.710611 
   10220    423.79942    38.995981 
   10230    424.56113    159.86118 
   10240    423.38725    191.18184 
   10250    425.29397    124.64802 
   10260    427.62284   -24.059367 
   10270    427.15723   -192.59473 
   10280    427.85418   -266.35132 
   10290    431.45794   -229.77917 
   10300    428.81621   -235.70827 
   10310    425.54187   -292.08868 
   10320    427.37534   -342.32896 
   10330    422.27504     -436.929 
   10340    419.58269   -441.75619 
   10350     422.7636   -352.83905 
   10360    419.38507   -364.34518 
   10370    418.15786   -420.26701 
   10380    420.31875   -444.05646 
   10390    418.58404   -445.97629 
   10400    418.92131    -380.7895 
   10410    421.53196   -303.82574 
   10420    423.23957   -293.53531 
   10430    422.85142   -328.82035 
   10440    421.84913   -322.29194 
   10450    423.12551   -225.83568 
   10460    418.85338   -143.42399 
   10470    416.91993   -66.532211 
   10480     421.7168  -0.32087864 
   10490    417.92886   -59.313864 
   10500    418.14229    -73.90918 
   10510     421.7665   -5.7112314 
   10520    415.67698    26.318031 
   10530    417.00027    119.55463 
   10540    418.93003    157.29695 
   10550    415.41012    69.916896 
   10560    420.34431    24.447161 
   10570    419.32834   -18.794972 
   10580    415.84105    17.557131 
   10590    419.49013    165.43386 
   10600    416.31337    186.64904 
   10610    415.51757    92.268683 
   10620    418.81422     -43.0519 
   10630    416.91114   -170.68554 
   10640    418.02995   -149.52729 
   10650    417.56046   -68.009239 
   10660    417.10984   -25.318564 
   10670    419.05404   -63.525306 
   10680    416.87292   -191.33587 
   10690    419.30083   -242.12545 
   10700    420.90554   -224.47607 
   10710    418.05913    -197.7376 
   10720    421.35425   -132.94463 
   10730    422.51622   -149.05569 
   10740    419.82669   -221.16275 
   10750    420.60223   -192.03696 
   10760    419.90948    -86.66733 
   10770    416.76444   -1.3370886 
   10780    415.18973    9.7305585 
   10790    416.53346   -46.328571 
   10800    417.26608   -123.62919 
   10810    415.93278   -135.27368 
   10820    418.67553    -2.521888 
   10830    418.98965    126.77864 
   10840    414.17848     113.4132 
   10850    414.50959    15.008468 
   10860    415.40396   -128.56718 
   10870    413.82977   -197.38243 
   10880    415.19137   -74.124485 
   10890    418.19722    112.15304 
   10900    417.52924    131.03499 
   10910    413.99794   -53.509293 
   10920    415.40951   -243.30961 
   10930    414.61028   -324.72116 
   10940     410.7206    -232.7708 
   10950      415.087    39.558662 
   10960    416.71723    207.42348 
   10970    413.14374    126.41435 
   10980    416.90545   -35.734867 
   10990    417.85333   -175.72282 
   11000    414.38251    -143.4814 
   11010     418.1741    144.44085 
   11020    418.89187      391.102 
   11030    415.95754    391.23124 
   11040    416.31206    209.07775 
   11050    414.67479   -17.835209 
   11060    415.03211    -82.06368 
   11070     416.7675    37.771794 
   11080    417.57648    200.45319 
   11090    419.27085    247.58957 
   11100     417.4598    70.241049 
   11110    415.73869   -184.36912 
   11120    414.72981   -317.25035 
   11130    413.17563    -245.1734 
   11140    413.95392   -27.685956 
   11150     413.7149    117.17097 
   11160    415.52081    98.884136 
   11170    417.37643   -33.103467 
   11180    416.28553   -124.93074 
   11190    417.69333   -8.5081912 
   11200    416.35218     227.0487 
   11210    414.26065    428.88861 
   11220    415.20717    463.17609 
   11230    412.83099     263.2892 
   11240    412.88806     62.69342 
   11250    414.50115    41.197935 
   11260    411.53708    143.53447 
   11270    411.99252    277.79353 
   11280    412.93546    258.48905 
   11290    409.51988    44.672366 
   11300    412.16633   -106.67547 
   11310    413.82053   -119.94111 
   11320     411.4124   -35.622785 
   11330     414.3293    114.38276 
   11340    413.62848    114.48071 
   11350    410.66757   -76.617515 
   11360    410.80052   -296.99913 
   11370      410.146   -399.16596 
   11380    410.70884   -289.69777 
   11390     409.5087   -102.88486 
   11400    409.55796    -38.86612 
   11410    410.56241    -218.1942 
   11420    407.89377    -520.4706 
   11430    408.93953   -595.94586 
   11440    411.69737   -368.15159 
   11450    410.60458   -78.207961 
   11460    412.24537    53.673084 
   11470    413.69408   -85.838366 
   11480    411.72827   -333.33621 
   11490    412.46775   -378.47061 
   11500    412.46879   -190.21555 
   11510    412.37992    77.578346 
   11520    414.93034    229.80892 
   11530    413.71858    125.39021 
   11540     414.2937   -68.301899 
   11550    415.25469   -161.13366 
   11560    411.53087   -102.02168 
   11570    412.41327    100.13429 
   11580     412.2248    224.48536 
   11590    409.03627    172.04604 
   11600     412.2181    83.812062 
   11610    412.02846   -17.567664 
   11620    410.00983   -77.527561 
   11630    414.49067    -60.98186 
   11640     412.6765    -106.3468 
   11650    410.15335   -137.81889 
   11660     413.3882    -88.08174 
   11670    410.03715    -111.6028 
   11680    406.90086   -193.27845 
   11690    409.14582   -269.51824 
   11700    407.22109   -349.88297 
   11710    405.46881   -317.28967 
   11720    408.60578   -131.16737 
   11730    409.92395    42.591329 
   11740    408.30405    83.634714 
   11750    409.90008    32.981838 
   11760    411.43551   -56.569698 
   11770    409.22315    -94.69855 
   11780    408.46988    38.935549 
   11790    409.16548    281.80697 
   11800    408.20426     450.0299 
   11810    408.13117    448.25813 
   11820    408.43008     277.8542 
   11830    407.98416      69.8877 
   11840    408.06545    21.738673 
   11850    408.07815    189.62707 
   11860    409.57328    445.29271 
   11870    409.19608    528.32831 
   11880    409.64401    336.00802 
   11890    411.07601   -28.965287 
   11900    407.52459   -350.33975 
   11910    406.92564   -355.84221 
   11920    407.16034   -117.25641 
   11930    404.05202    62.645899 
   11940    406.95084    12.939323 
   11950    408.42056   -339.16948 
   11960    407.95513   -720.42954 
   11970    411.17233   -760.60491 
   11980    409.67489   -475.75606 
   11990    408.26599   -92.870363 
   12000    410.10454    55.082106 
   12010    406.68475   -215.81178 
   12020    405.98554   -574.80578 
   12030    409.45234   -639.29809 
   12040    406.84542    -371.4355 
   12050    408.69033    91.967899 
   12060    413.25784    350.24032 
   12070    409.58092     135.3181 
   12080    410.26335   -229.38432 
   12090    413.03235   -392.26632 
   12100    409.30056   -247.19503 
   12110    408.22208    142.50448 
   12120      409.959    439.57535 
   12130    407.21379    331.74691 
   12140    404.77945   -58.690585 
   12150    408.16793   -342.93606 
   12160    406.81434   -333.62043 
   12170    403.90515   -21.029432 
   12180    408.76466    370.75002 
   12190    406.49652    381.70607 
   12200    402.85721    36.518069 
   12210    407.07261   -293.29604 
   12220    404.00717   -424.01426 
   12230    402.69166    -195.1063 
   12240    407.07881    196.77732 
   12250    404.77124    287.81846 
   12260    405.75945    34.362618 
   12270    407.79637   -352.89462 
   12280    404.59944   -549.15216 
   12290    406.13137    -298.0712 
   12300     407.1739    124.71337 
   12310     405.6047    293.64078 
   12320    405.95985     102.3225 
   12330    406.67476   -214.73436 
   12340    405.25283   -327.13744 
   12350    403.09084   -107.26757 
   12360    405.16192    273.83928 
   12370    404.61318    431.41912 
   12380    401.80623    263.58471 
   12390    405.72895    20.514163 
   12400    405.93251   -148.88986 
   12410    402.00892   -112.44884 
   12420    406.02109    166.87631 
   12430     407.1753    346.05269 
   12440    402.34775    215.81937 
   12450    404.71518   -32.872841 
   12460    406.50946   -232.37128 
   12470    401.99825   -249.87495 
   12480    401.82411   -11.407333 
   12490    405.02495    246.97201 
   12500    403.15158     235.4215 
   12510    400.38187    11.759089 
   12520    403.63395   -158.54733 
   12530    403.74085   -168.59136 
   12540    400.89502    9.2092005 
   12550    403.94525    277.77207 
   12560    404.74411    330.84445 
   12570    400.51202    89.488699 
   12580    401.82156   -169.48157 
   12590    402.30786   -263.13874 
   12600    398.12364   -158.09737 
   12610    401.07856    72.525129 
   12620    403.65132    115.45031 
   12630    400.60394   -123.09764 
   12640    404.57921   -326.85922 
   12650    405.92957   -337.97836 
   12660    401.73577    -154.4592 
   12670     403.4571    113.81438 
   12680    402.71828     171.7483 
   12690    399.59758    9.6702778 
   12700    403.25269   -96.942913 
   12710    403.89071   -56.630672 
   12720    402.66099    103.70657 
   12730    405.70599    243.51527 
   12740    403.60182    150.94863 
   12750    402.10475   -48.055468 
   12760    403.56388     -123.784 
   12770    400.78586   -24.033237 
   12780    402.80619    214.37389 
   12790    404.57528     320.8993 
   12800     401.0449    144.17236 
   12810    401.68846   -109.13308 
   12820    400.99439   -239.38412 
   12830    397.40568   -133.82986 
   12840    399.62241    146.00042 
   12850    401.25029    268.78526 
   12860    400.50291    74.279242 
   12870    401.29186   -268.18678 
   12880    401.46428   -479.22134 
   12890    401.28804   -380.20183 
   12900    399.05498   -90.670488 
   12910    399.78349    159.63542 
   12920    402.90147    158.15352 
   12930    398.94401   -144.36908 
   12940    399.61519   -390.80177 
   12950     402.8248   -358.27492 
   12960    397.47411   -136.13967 
   12970    398.10703    185.91335 
   12980    401.96251    315.46922 
   12990    398.62973    68.105795 
   13000    398.12308   -283.71372 
   13010    399.78561   -448.66162 
   13020    396.48287   -337.12722 
   13030    394.52189   -2.1591387 
   13040    396.49388     283.5174 
   13050    396.56254    231.64691 
   13060    395.04587   -102.35635 
   13070    397.14491    -368.1786 
   13080    398.41726   -335.41371 
   13090    396.07017   -40.038176 
   13100    398.01632    312.35281 
   13110    399.13194     396.1503 
   13120    396.47749    163.48385 
   13130    400.29105   -51.258804 
   13140    398.57873   -91.990204 
   13150    394.20023    95.511688 
   13160    397.64535    375.41852 
   13170    393.68376    362.88321 
   13180      392.448    149.48106 
   13190    399.01192    12.071368 
   13200    396.08963   -14.239161 
   13210    395.45428    143.13734 
   13220    399.72672    320.38269 
   13230    395.48424    269.98052 
   13240    393.85113    161.69427 
   13250    397.22119    171.53279 
   13260    395.74591    251.56159 
   13270     394.9814    359.73809 
   13280    396.67862    397.56519 
   13290    396.66263    284.96027 
   13300    394.36232    107.58691 
   13310    394.34763    69.096349 
   13320    397.76965    226.22477 
   13330    396.08553    359.48481 
   13340    394.55773    323.32716 
   13350    396.46012    98.226651 
   13360    394.47572   -221.42836 
   13370    392.91123   -351.83112 
   13380    396.51748   -157.82142 
   13390    399.17213    127.44655 
   13400    398.25758    205.73928 
   13410    398.75157    11.495991 
   13420    399.54927   -319.43776 
   13430    397.52994   -522.40671 
   13440    396.85559   -364.76725 
   13450    398.48872    55.677713 
   13460    399.00449     361.5225 
   13470    396.97464    271.43765 
   13480    395.77655   -115.09361 
   13490    395.73835   -438.80346 
   13500    393.89135   -395.71743 
   13510    393.54427    34.670486 
   13520    396.25635    496.54448 
   13530    396.79912    548.51926 
   13540    394.94654     148.3071 
   13550     394.9277   -317.24308 
   13560    395.35626   -443.78564 
   13570    394.11934   -134.34104 
   13580    394.83347    349.34516 
   13590    397.49502    561.89684 
   13600    396.92772    268.90184 
   13610    394.80011   -281.06893 
   13620    395.14804   -617.49527 
   13630    394.68928   -511.14596 
   13640    392.98503   -92.479549 
   13650    395.53104     289.5687 
   13660    398.33709    268.66272 
   13670    395.94542   -184.73731 
   13680    396.17281   -646.28153 
   13690    396.39463   -748.21563 
   13700    392.46979   -439.78029 
   13710    391.90712    49.832533 
   13720    392.67513    284.16487 
   13730      392.101    72.313286 
   13740    392.07578   -344.11998 
   13750    392.65587   -571.79334 
   13760    393.22227   -399.85907 
   13770    392.36107    34.393031 
   13780    392.38344    399.39479 
   13790    393.57114    423.36825 
   13800    392.15873    106.83598 
   13810    392.34239   -220.85274 
   13820     393.5876   -273.49658 
   13830    391.20506    -48.18941 
   13840    391.67688    276.03217 
   13850    391.93391    379.83762 
   13860    388.38624    150.73718 
   13870    390.50766    -153.8559 
   13880    390.19249   -355.40717 
   13890    388.88141   -324.62466 
   13900    392.74251   -107.89142 
   13910    391.53112     1.777231 
   13920    391.13868   -41.110551 
   13930    392.33302   -160.56867 
   13940    390.10372   -278.80981 
   13950    391.52543   -275.06245 
   13960    391.67058   -216.69057 
   13970    389.96048   -147.38968 
   13980    390.73328   -34.576912 
   13990    390.28948    69.964159 
   14000    390.16799    117.43229 
   14010    391.49251    68.064972 
   14020    393.38969   -48.302067 
   14030     395.1339   -118.49258 
   14040    393.59135   -73.350945 
   14050    393.71644    92.714681 
   14060    392.45313    200.20564 
   14070    388.11884    110.85469 
   14080    389.61905   -79.211688 
   14090    390.29863   -282.48895 
   14100    389.88701   -344.55285 
   14110    392.06246   -190.33164 
   14120     389.0211    9.3279623 
   14130    387.78806    144.95695 
   14140    387.96878      94.9256 
   14150      385.594   -137.02598 
   14160    388.51195   -300.13132 
   14170    389.95351   -282.74825 
   14180    389.07185   -86.493063 
   14190    390.47515    158.66417 
   14200    387.97308    194.59734 
   14210    387.30503    19.209996 
   14220    387.26397   -228.34579 
   14230    384.76937    -356.0681 
   14240    387.66415   -196.05844 
   14250    386.27599    58.091328 
   14260    383.60521    205.71958 
   14270    387.54656    170.58856 
   14280    385.58384   -81.522786 
   14290    385.49302   -251.90096 
   14300    389.36924   -149.70346 
   14310    388.01159    100.51139 
   14320    388.35519    345.92236 
   14330    387.52151    385.70475 
   14340    385.78938     230.9736 
   14350    387.66032    69.670486 
   14360    386.95619   -3.5472275 
   14370    388.80688     81.60464 
   14380    391.63922    199.90459 
   14390    389.21746    171.90285 
   14400    389.79188    48.613394 
   14410    389.21785   -118.73959 
   14420    386.72707   -214.45929 
   14430      387.675   -144.72113 
   14440    387.12316   -41.893722 
   14450    388.96695   -16.073235 
   14460     389.9651   -145.97753 
   14470    388.93762   -342.48344 
   14480    391.16639   -405.76767 
   14490    387.62328   -344.99494 
   14500    385.34892   -173.26741 
   14510    388.99893   -13.583398 
   14520    387.21016   -73.658309 
   14530    387.53053   -237.00646 
   14540    391.45617   -347.15224 
   14550       390.73   -374.25952 
   14560       388.19   -295.57838 
   14570    386.71443    -190.3484 
   14580    388.28258   -176.08056 
   14590    386.79599   -335.34679 
   14600    386.24959   -506.99411 
   14610    392.32322   -479.58673 
   14620    389.21247   -343.31267 
   14630    385.49976   -131.23107 
   14640    389.27498    44.425039 
   14650    385.89741   -34.441054 
   14660    384.88542   -192.20904 
   14670    389.71049   -242.78879 
   14680    388.35693   -221.28685 
   14690    388.23293   -106.43828 
   14700    388.21588   -15.582384 
   14710    385.37551   -57.981218 
   14720    384.70468   -177.35135 
   14730    383.38495   -293.19231 
   14740    385.74607   -257.19996 
   14750    388.03184   -92.600583 
   14760    385.49447    61.482849 
[...]
  159700     99.48644   -1169.7037    66.802011    -119.7467    169.39497    40.554197    41.340635   -13810.963    737.27791    1285.7014    3944.4278 
  159800    100.74095   -1136.8426    108.32009   -146.02323     169.4602    40.546136    41.341422   -13851.363     735.7734    1290.5066    3943.1503 
  159900    99.248426    -1467.715   -229.54337   -10.512996    169.52543    40.572239    41.302452   -13827.412    740.24872     1282.185    3963.4441 
  160000    100.45682   -1261.8179    54.421662    82.233775    169.59066    40.587177    41.271677   -13832.013    739.66234    1297.0708     3938.252 
  160100    100.77406   -1406.8447   -64.555395    54.049496    169.65588    40.603569    41.253585   -13826.683    751.82589    1276.6867    3935.1842 
  160200    100.61645   -1084.3959    58.336669    209.85936    169.72111    40.553012    41.245899   -13808.425    735.87682    1299.8131    3915.3901 
  160300    100.44233   -1453.3297    91.332921   -77.209111    169.78634    40.515531    41.283415   -13827.414     729.0964    1295.7655    3946.1753 
  160400    100.48131   -1545.5971    -80.72934   -9.3685725    169.85157    40.488259    41.288509   -13822.206    718.58919    1325.3054    3924.8232 
  160500    100.35993   -1460.5081   -204.41392   -78.792919    169.91679    40.479871    41.299217   -13818.173    740.35209    1277.3214    3956.9541 
  160600    100.46664   -1467.8184    11.778314   -151.93012    169.98202    40.479339    41.287946   -13822.664    739.69902    1276.3311     3946.151 
  160700     101.0149   -1427.7004    2.5458532    41.746063    170.04725    40.483211    41.255595   -13810.769     726.0181    1284.9029    3929.2009 
  160800    100.75354   -1465.0755   -286.84424   -144.85609    170.11247    40.482403    41.252549   -13800.905    730.31709    1281.1212    3918.9808 
  160900    100.07248   -1247.8696   -46.055633    17.576146     170.1777    40.450186    41.248084   -13829.786    725.20993    1301.7071    3951.1337 
  161000    100.19364   -1560.3265    90.900484     89.69754    170.24293    40.419339    41.266018   -13808.175    728.48889    1293.5053      3936.91 
  161100    100.27689   -1426.3541    25.394774   -61.049003    170.30816    40.409015    41.277616   -13797.592    744.67426    1287.1974    3922.0858 
  161200     98.84646    -1471.067   -97.432443   -31.369929    170.37338    40.412887    41.298712    -13782.62    737.87256    1289.5357    3953.5278 
  161300    99.588891   -840.93312    103.38398    87.091418    170.43861    40.379708    41.273795   -13810.924    753.59804    1309.0888    3927.7019 
  161400    100.96462   -1403.8697    101.43649    267.08224    170.50384    40.376227    41.251827   -13806.246    738.53199    1300.1613    3909.3328 
  161500     99.82825   -1295.0945    297.99419    393.07062    170.56906    40.341559    41.296042   -13819.032    752.61199    1286.9551    3953.3076 
  161600    99.668058   -1176.0139    -160.3182   -90.608742    170.63429     40.32449    41.335245   -13820.932    731.83381    1312.9444    3960.7188 
  161700    100.37914   -939.10458    86.743445    1.7537102    170.69952    40.285873    41.309043   -13809.333    733.81342    1273.3692    3962.1588 
  161800    100.56448   -1305.3903    84.272804   -125.27324    170.76475    40.299952    41.317997   -13818.386    740.86418    1280.9796    3947.6937 
  161900    99.020113   -1253.0455   -70.693645    20.727424    170.82997    40.290359    41.306854   -13824.114    741.67814    1289.7947    3986.2073 
  162000    99.583142   -1002.2096     145.2098    312.47214     170.8952    40.205894    41.262237   -13832.787    737.92534    1302.0597    3967.5495 
  162100    99.495815    -1437.596    141.65012    51.557858    170.96043      40.2041    41.239294   -13824.271    743.97581    1286.6957     3970.456 
  162200    99.885112   -941.01149   -5.1127965   -104.21379    171.02565     40.25987    41.231925   -13833.711    726.53507    1309.4169    3962.6327 
  162300    99.824053   -1531.0043   -236.57821    57.790746    171.09088    40.328636    41.232264   -13839.552    733.75398    1321.0776    3966.9486 
  162400    100.12059   -1149.4167    -47.37141    206.25282    171.15611    40.275267    41.222747    -13844.96    725.04252    1308.5945    3973.6816 
  162500    100.05332   -1248.9972    157.46736   -114.98021    171.22134    40.205261    41.267912   -13830.028    736.39959     1304.556    3944.8697 
  162600    100.37323   -1195.7091   -23.090286    22.301494    171.28656    40.150808    41.282139   -13830.856    728.17763    1278.3763    3968.0752 
  162700    100.82475   -1647.6446    111.59453    174.47204    171.35179    40.155219    41.305951   -13816.477    717.88993    1289.7201    3943.2115 
  162800    100.92166   -1219.7741    288.01084    95.184978    171.41702    40.159113    41.315283   -13835.149    743.61092    1286.4162    3944.5585 
  162900    99.862427     -1237.73    113.83671    102.63125    171.48224    40.174114    41.281297   -13819.647    742.52081    1293.4086    3950.1981 
  163000    99.664613   -1080.3859   -74.793512   -164.59264    171.54747    40.198411    41.260222   -13825.647    743.43997    1284.1674    3977.5277 
  163100    100.01624    -1426.143    245.14559     170.2502     171.6127    40.221885    41.238354   -13833.029    734.91512    1301.5192    3962.1896 
  163200    100.92946   -1187.4972   -5.4840375    374.70826    171.67793    40.247541    41.208428   -13821.784    739.14703    1300.1806    3928.9753 
  163300    99.574255   -955.28184   -64.543542    30.322236    171.74315    40.258149    41.166611   -13823.862    740.07638    1317.0291    3953.6351 
  163400    99.525587   -1312.2613   -21.795177    20.744485    171.80838    40.255243    41.135671   -13838.631    742.07978    1327.0605    3959.4655 
  163500    101.10458   -1313.1472   -50.560446    77.095961    171.87361    40.212041    41.118049   -13819.625    730.63752    1307.5058    3913.4972 
  163600     100.1585    -1672.294   -159.74101    -24.75899    171.93883     40.19179    41.117193   -13848.026    736.53973    1317.2217    3950.8592 
  163700    99.170233   -1435.1615    93.451893    117.89459    172.00406    40.177052    41.133263   -13846.801    743.45374    1335.8096    3956.1056 
  163800     100.0994   -1391.1728   0.24723464   -24.796925    172.06929    40.156385    41.157405   -13843.641    738.06767    1297.3553    3968.9969 
  163900    100.20196   -1253.6243    50.378014   -6.9826726    172.13452    40.128217    41.160746   -13834.585    745.38268    1276.5477    3968.8508 
  164000    99.791986   -1474.7917    223.30798    137.68756    172.19974    40.134749    41.143987   -13830.017    749.67451    1304.7056    3943.1272 
  164100    100.35715   -1293.6312     97.85932      203.684    172.26497    40.145992     41.11836    -13829.52    743.07843    1287.7011    3953.3964 
  164200    100.78864   -1758.9953   -179.68207       157.99     172.3302    40.159439    41.093272   -13829.816    738.56947    1267.8197    3967.9879 
  164300    100.34724   -1479.8941   -174.27534   -144.96372    172.39542    40.177176    41.094783   -13801.258    728.11224    1271.7698    3956.1362 
  164400    99.740713   -1264.4464    57.872198   -179.61245    172.46065    40.211983    41.088076   -13832.934    738.54248    1305.0703    3962.3429 
  164500    99.745423   -1604.6576   -43.621285    12.541372    172.52588    40.218294    41.045891   -13809.773    734.02797    1279.5742     3963.407 
  164600    99.604303   -1648.5924   -31.664723   -112.62655    172.59111    40.210756    40.974363   -13823.293    730.13266    1284.4366    3979.6528 
  164700     100.1158   -1470.6325    -100.8864   -50.715669    172.65633    40.230863    40.914818   -13825.204    734.49695    1296.4435    3949.7811 
  164800    100.10226   -1246.2461    22.029459   -4.0762278    172.72156    40.206304    40.911291   -13854.328    736.25817    1295.9618    3981.5603 
  164900     100.4774   -1684.4894   -220.32938   -22.451941    172.78679    40.215579     40.92373   -13839.345    720.24723    1304.0471    3974.5986 
  165000    100.22227   -1482.8871    207.96502    104.01728    172.85202     40.16595    40.899311   -13832.214    739.87942    1286.8087    3966.3653 
  165100    100.43246   -1707.8053   -21.165899    155.76429    172.91724     40.17673    40.900953   -13827.632    737.00104    1303.8223    3943.2496 
  165200    99.596226   -1517.6597   -92.090262   -26.239314    172.98247    40.182718    40.929943   -13834.308      743.532    1299.9701    3971.4223 
  165300    100.03722   -1337.6772    22.075644    -129.5501     173.0477    40.159006    40.924937   -13819.441    738.01943    1302.8677     3952.093 
  165400    99.290611   -1285.9482    90.105465    198.02585    173.11292    40.145612    40.890555   -13805.954    751.04452    1292.3578    3961.5178 
  165500    99.653773   -1110.4254    215.07467    308.30048    173.17815    40.180235    40.885415   -13815.957    744.85714    1278.7742    3988.1501 
  165600    100.07146   -1318.9708    186.18994   -1.1968477    173.24338    40.221677    40.891803   -13804.243    748.39819    1291.0053    3954.4578 
  165700    100.83544   -1133.3364   -58.556133   -173.35067    173.30861    40.199543    40.842857   -13803.795    736.19824     1286.336    3949.1193 
  165800    99.667994   -1708.4712    40.462753    211.62597    173.37383    40.187345    40.784216   -13832.044    752.62219    1314.1358    3959.7489 
  165900    100.03309   -1476.5898    26.214266    271.80551    173.43906     40.17605    40.769404   -13838.625    763.05961    1291.6574     3963.721 
  166000    100.13278   -1726.2768   -52.795365   -258.82455    173.50429    40.154618    40.764146    -13846.53    750.74439      1287.09    3977.8265 
  166100     100.0822   -1620.5538   -286.95482   -393.62095    173.56951    40.137554    40.762288   -13834.218    759.36211    1284.7155    3957.1823 
  166200    100.54545    -1728.211   -122.68893    23.683014    173.63474    40.146844    40.759979   -13819.947    746.97677    1290.0451    3948.0046 
  166300    100.30023   -1834.4058     30.69919   -49.076769    173.69997    40.120567    40.792349    -13829.25    736.71114     1306.358    3957.1837 
  166400     100.1432    -1336.303    26.339442    155.90578     173.7652    40.051975    40.784037    -13814.17    748.55623    1251.3001    3995.3302 
  166500    99.508235   -1567.3928    46.661283    145.79012    173.83042    39.990348    40.798446   -13823.774    755.16273    1305.6542    3962.4918 
  166600    100.49263   -1437.1427    54.747484   -131.78442    173.89565    40.001884    40.851547   -13793.546    746.81903    1273.4536    3956.7227 
  166700    100.18786   -1542.8612    164.05261   -111.67483    173.96088    39.985248    40.882489   -13820.586    738.65421    1305.3634    3958.4443 
  166800    100.35157   -1284.7207   -10.155603    132.50014     174.0261     39.93474    40.859268   -13844.537    741.40232    1296.3157    3987.7135 
  166900    99.547356   -1175.9097   -110.56987    145.07528    174.09133    39.885264    40.879457   -13803.323    742.06633    1321.6746    3937.1795 
  167000    99.435042   -1337.3509    204.82482    169.24706    174.15656    39.843686    40.921673   -13819.056    751.26691    1283.9505    3991.3711 
  167100    100.60021   -1286.5222    179.91045   -41.845556    174.22179    39.803079    40.979754   -13819.944    728.09332    1313.9108    3950.8662 
  167200    99.490176   -1477.2661    197.44609    90.752137    174.28701    39.754379    41.020419   -13783.564    746.37598    1283.6018    3955.6939 
  167300    99.145269   -1770.2782   -216.84295   -33.401699    174.35224    39.756295    41.073733   -13791.888    747.98262    1306.6414    3953.9654 
  167400    100.52862   -1135.4275   -194.20041   -21.534139    174.41747    39.742152    41.092735   -13769.856    738.70687    1289.2071     3931.929 
  167500    99.984973   -1020.1935   -89.388786   -26.815489    174.48269    39.727661    41.094779   -13807.329    734.00262    1295.5802    3973.0447 
  167600    100.14094    -1726.026   -77.215671    119.65598    174.54792    39.680146    41.081961   -13799.671    750.72457    1272.4384    3974.5118 
  167700    99.346699    -1681.721    35.128772   -123.24002    174.61315    39.648189    41.068227   -13783.024    751.77539     1307.264    3946.4739 
  167800    99.762352   -1461.7427    -204.7285   -95.672144    174.67838    39.690142    41.027663   -13819.205    749.57266     1328.369    3958.6136 
  167900     99.82135   -1444.8471   -2.4294356    53.518195     174.7436     39.66867    40.972857   -13818.907    753.16076     1325.265    3950.9701 
  168000    100.19717   -1444.7437   -91.148581   -161.94136    174.80883    39.621872     40.96107   -13808.507    742.04213    1286.5656    3971.0551 
  168100    101.32476   -1082.2607    367.83632    103.51644    174.87406    39.610719    40.975843   -13834.434    745.27927    1309.2174    3930.8462 
  168200    99.270244    -1641.396    116.07609    232.22628    174.93928    39.680862    40.979185   -13794.245    747.46206    1305.4717    3956.0609 
  168300    100.28811   -1695.3768     -225.648   -52.495822    175.00451    39.731845    40.976045   -13817.095    738.23044    1342.4834    3925.4893 
  168400    100.24126   -1731.0451   -354.59585     20.78974    175.06974    39.748943    40.958037   -13784.199     748.1333    1276.3198    3949.8002 
  168500    99.893063   -1409.2647    136.77008    148.09039    175.13497     39.70059    40.928629   -13799.119    734.52193    1343.2649    3919.5929 
  168600    100.19005   -1462.1534    76.650726   -317.80632    175.20019    39.683708    40.962349   -13826.944     753.2531    1289.2187    3966.1519 
  168700    100.76835    -1503.594   -11.028902    121.48192    175.26542        39.68     40.98563   -13812.047    758.51485    1294.1036    3922.2706 
  168800    99.889748   -1089.7478   -169.29475    271.83532    175.33065    39.674025    40.984525   -13796.227     750.7934    1287.3823    3943.7525 
  168900    98.451259   -1709.7291   -126.36651   -129.50195    175.39588    39.683744    40.999651   -13786.822    767.12811    1301.0235    3962.6002 
  169000    100.12997   -870.08071    12.805947     118.0384     175.4611    39.698431    41.010888   -13787.931     734.4696    1288.3085    3966.0422 
  169100     99.24058   -1190.6427   -39.606165   -28.247178    175.52633    39.696319    41.038113   -13765.883    745.31497    1314.7944    3935.1038 
  169200    100.98628   -1747.6708   -218.46496    86.872661    175.59156    39.645599    41.017377   -13780.895    747.97767    1286.3757    3924.1265 
  169300    99.662621   -1365.1467    36.218033   -16.226504    175.65678    39.613785    41.001956   -13796.841    761.13762    1290.2791    3951.1215 
  169400    99.957912   -1067.4523   -81.011371   -9.3599208    175.72201    39.618868    40.989699   -13808.078    748.02149    1293.3245    3968.3337 
  169500    99.079019   -1365.2478   -138.51869   -42.553384    175.78724    39.611422    40.955485   -13799.569    750.19901    1286.0649    3983.2742 
  169600    100.01563   -1478.0251    51.150836   -140.09521    175.85247    39.596958     40.93886   -13807.139     746.6618    1268.2113    3986.4446 
  169700    100.55444   -1024.5749    82.960168    481.21603    175.91769    39.575761     40.93346   -13801.182    749.69525    1278.5441    3957.5492 
  169800    100.42965   -1773.2746   -26.527402   -40.978146    175.98292     39.58271    40.954353   -13794.527    729.73926    1275.1444    3978.0541 
  169900    100.64074    -1277.112   -101.62102   -435.47993    176.04815    39.588492    40.936656    -13792.25    737.91695    1291.5504    3940.8152 
  170000    99.582204   -1012.4868    268.30779   -38.460313    176.11337    39.616794    40.888571   -13776.409     752.7344    1274.0601    3963.7247 
  170100    100.04768   -1282.6039    71.132457    490.23323     176.1786    39.659302    40.838405   -13799.787    738.06529     1300.164    3958.4611 
  170200      99.3601   -1678.9779   -14.842576    68.985303    176.24383    39.666869    40.785192   -13776.232    746.52519    1273.4792    3972.8638 
  170300    100.66334   -1425.5389    133.01203   -2.5465774    176.30906    39.646368    40.789601   -13794.299    736.15918    1295.4871    3938.1533 
  170400    100.15154    -1331.145   -42.203333   -120.99235    176.37428    39.681591    40.819692   -13791.176    736.51724    1297.5765    3954.7709 
  170500    100.65631   -1418.5177   -32.921582   -125.47352    176.43951    39.692483    40.817896   -13774.805    729.65607    1311.9934     3931.016 
  170600    100.38289   -1333.9335   -374.44861   -40.127886    176.50474    39.694232    40.799657    -13781.77    745.39893    1296.2948    3951.6197 
  170700    99.923191   -1817.7408    -263.3071    197.24158    176.56996    39.684535    40.771825   -13783.916    760.30633    1293.0929    3953.6882 
  170800     100.1121   -1618.5707   -29.254964     22.28903    176.63519    39.685861    40.755621   -13761.034    723.87948    1280.4695    3965.1001 
  170900    99.893159   -1371.9436     73.25996    -3.106619    176.70042    39.679354    40.752145   -13773.494    755.19076    1327.3438    3907.9369 
  171000    98.785074   -1348.4569   -12.253898    -99.98376    176.76565    39.645085    40.785078   -13785.134    751.15641     1316.878    3968.9359 
  171100    99.267893   -1314.3414      28.8168    292.49401    176.83087    39.573389    40.819091   -13770.419    750.95663    1319.9718    3948.7931 
  171200    99.931535   -1503.4251   -48.192279    63.085553     176.8961    39.551869    40.863207   -13758.507     742.8947    1313.1343    3938.7533 
  171300    100.17676   -1284.1443    329.77177    116.58847    176.96133    39.519963    40.859523   -13778.901     758.2274    1292.0129    3964.5199 
  171400     101.5983   -1335.5753    257.44817   -408.43647    177.02655    39.485648    40.860408   -13789.992    746.05919    1284.7613    3949.2814 
  171500    99.191176   -1346.1252   -141.94121   -328.79291    177.09178    39.440955    40.798379   -13795.056    748.04074    1297.8264     3993.233 
  171600    100.17372   -1554.8034   -337.65525    425.01151    177.15701    39.443129     40.70691   -13825.689    749.81385    1313.2769    3976.8181 
  171700    99.708407    -1742.476    292.38217    14.534408    177.22224    39.467151    40.720637   -13821.555     751.3852    1322.9016    3961.3291 
  171800     99.81721   -1822.4066   -47.064845   -291.49005    177.28746     39.51167      40.7599    -13791.01    738.01702    1315.2613    3956.1319 
Loop time of 881.099 on 8 procs for 171800 steps with 10000 atoms

Performance: 16.847 ns/day, 1.425 hours/ns, 194.984 timesteps/s
92.4% CPU use with 8 MPI tasks x no OpenMP threads

MPI task timing breakdown:
Section |  min time  |  avg time  |  max time  |%varavg| %total
---------------------------------------------------------------
Pair    | 358.89     | 438.96     | 473.92     | 174.2 | 49.82
Bond    | 76.745     | 93.928     | 99.686     |  77.9 | 10.66
Neigh   | 66.025     | 66.094     | 66.133     |   0.4 |  7.50
Comm    | 117.02     | 158.16     | 256.85     | 351.6 | 17.95
Output  | 0.94284    | 0.96692    | 0.98777    |   1.4 |  0.11
Modify  | 113.01     | 114.33     | 114.69     |   4.9 | 12.98
Other   |            | 8.655      |            |       |  0.98

Nlocal:    1250 ave 1319 max 1127 min
Histogram: 1 0 1 0 1 0 1 0 1 3
Nghost:    5570.12 ave 5787 max 5354 min
Histogram: 1 1 0 0 1 2 1 1 0 1
Neighs:    117440 ave 128418 max 105043 min
Histogram: 1 0 1 0 2 0 1 2 0 1

Total # of neighbors = 939516
Ave neighs/atom = 93.9516
Ave special neighs/atom = 5.988
Neighbor list builds = 8438
Dangerous builds = 0
unfix 1
unfix 2
unfix def1
unfix def2

print "All done"
All done
Total wall time: 0:25:28
